32
Mode 0 Frame: * (null), Energy   -1000.0000000
N -2.979314 -0.699293 0.018165
C -1.783568 -0.268409 0.860465
C -0.604217 0.317724 0.135365
C -0.685296 1.681010 -0.296900
C 0.456695 -0.596181 -0.471398
C -4.047251 -1.127867 0.942093
C -2.624666 -1.824114 -0.864260
C -3.477498 0.416652 -0.805044
H -2.158477 0.499254 1.541651
H -1.470991 -1.146135 1.428088
H 0.171946 -1.648139 -0.554052
H 0.425419 0.390064 1.031268
H -4.348941 -0.293635 1.572666
H -3.690868 -1.938374 1.575404
H -2.239842 -2.654111 -0.274547
H -1.864011 -1.509166 -1.574793
H -2.735436 0.688547 -1.552636
H -3.652512 1.293243 -0.183925
N 1.471520 -0.451631 0.580751
O -1.514702 2.505160 0.092954
H -4.399991 0.125483 -1.304316
H -3.506273 -2.153314 -1.412899
H -4.911774 -1.472941 0.376864
H 0.834311 -0.236245 -1.433191
H 0.142221 1.996052 -0.958968
S 2.856888 0.218925 0.146153
O 3.427613 0.898826 1.294494
O 2.748542 1.001061 -1.084905
C 3.979844 -1.174835 -0.235402
H 4.947309 -0.754860 -0.473943
H 4.027006 -1.796491 0.647412
H 3.568844 -1.709948 -1.080592
32
Mode 0 Frame: * Frequency(6) -1377.4700
N -2.980977 -0.699921 0.017576
C -1.778232 -0.266297 0.860886
C -0.615135 0.319700 0.122300
C -0.683042 1.673024 -0.293459
C 0.452541 -0.595685 -0.471373
C -4.047368 -1.127946 0.941850
C -2.624979 -1.824060 -0.864216
C -3.477792 0.416342 -0.805032
H -2.158061 0.500775 1.539440
H -1.472113 -1.147059 1.427493
H 0.172894 -1.648549 -0.553256
H 0.635621 0.314730 1.064753
H -4.348101 -0.293259 1.572229
H -3.690195 -1.938171 1.575182
H -2.240102 -2.653628 -0.273930
H -1.864396 -1.507560 -1.574025
H -2.733887 0.688744 -1.550393
H -3.650276 1.293083 -0.183627
N 1.461989 -0.446960 0.585909
O -1.515836 2.506574 0.093521
H -4.400179 0.125784 -1.304874
H -3.506134 -2.153689 -1.413467
H -4.912635 -1.473133 0.377499
H 0.835745 -0.236222 -1.430223
H 0.145140 1.994419 -0.955462
S 2.859956 0.220943 0.145417
O 3.426773 0.898485 1.293765
O 2.748445 0.999911 -1.083255
C 3.977576 -1.174972 -0.234878
H 4.944184 -0.752579 -0.473053
H 4.027201 -1.796870 0.647773
H 3.568914 -1.710465 -1.080949
32
Mode 0 Frame: * Frequency(6) -1377.4700
N -2.982460 -0.700481 0.017051
C -1.773475 -0.264414 0.861262
C -0.624870 0.321462 0.110652
C -0.681032 1.665903 -0.290390
C 0.448836 -0.595243 -0.471351
C -4.047472 -1.128016 0.941633
C -2.625259 -1.824012 -0.864177
C -3.478055 0.416065 -0.805021
H -2.157690 0.502131 1.537468
H -1.473113 -1.147884 1.426963
H 0.173740 -1.648915 -0.552545
H 0.823044 0.247559 1.094609
H -4.347352 -0.292924 1.571840
H -3.689595 -1.937991 1.574985
H -2.240334 -2.653198 -0.273380
H -1.864740 -1.506128 -1.573340
H -2.732505 0.688919 -1.548392
H -3.648282 1.292941 -0.183362
N 1.453491 -0.442796 0.590509
O -1.516848 2.507835 0.094026
H -4.400346 0.126053 -1.305372
H -3.506010 -2.154023 -1.413973
H -4.913404 -1.473304 0.378066
H 0.837023 -0.236202 -1.427577
H 0.147742 1.992962 -0.952335
S 2.862691 0.222742 0.144761
O 3.426024 0.898180 1.293116
O 2.748358 0.998885 -1.081784
C 3.975553 -1.175094 -0.234410
H 4.941397 -0.750545 -0.472260
H 4.027375 -1.797209 0.648095
H 3.568977 -1.710926 -1.081268
32
Mode 0 Frame: * Frequency(6) -1377.4700
N -2.983602 -0.700913 0.016647
C -1.769811 -0.262964 0.861551
C -0.632367 0.322818 0.101681
C -0.679484 1.660420 -0.288027
C 0.445984 -0.594903 -0.471334
C -4.047552 -1.128070 0.941467
C -2.625474 -1.823975 -0.864147
C -3.478257 0.415852 -0.805013
H -2.157405 0.503175 1.535950
H -1.473883 -1.148518 1.426555
H 0.174391 -1.649197 -0.551999
H 0.967378 0.195831 1.117601
H -4.346776 -0.292666 1.571540
H -3.689133 -1.937852 1.574833
H -2.240512 -2.652866 -0.272956
H -1.865004 -1.505026 -1.572812
H -2.731442 0.689054 -1.546852
H -3.646746 1.292832 -0.183158
N 1.446947 -0.439589 0.594051
O -1.517627 2.508806 0.094415
H -4.400475 0.126260 -1.305755
H -3.505915 -2.154280 -1.414363
H -4.913995 -1.473436 0.378502
H 0.838008 -0.236186 -1.425539
H 0.149746 1.991841 -0.949928
S 2.864798 0.224127 0.144256
O 3.425448 0.897946 1.292615
O 2.748291 0.998096 -1.080651
C 3.973996 -1.175188 -0.234050
H 4.939251 -0.748979 -0.471649
H 4.027509 -1.797469 0.648343
H 3.569025 -1.711281 -1.081513
32
Mode 0 Frame: * Frequency(6) -1377.4700
N -2.984280 -0.701169 0.016407
C -1.767638 -0.262104 0.861723
C -0.636814 0.323623 0.096360
C -0.678566 1.657167 -0.286626
C 0.444292 -0.594701 -0.471323
C -4.047600 -1.128102 0.941368
C -2.625602 -1.823953 -0.864129
C -3.478377 0.415725 -0.805008
H -2.157235 0.503794 1.535050
H -1.474340 -1.148895 1.426313
H 0.174777 -1.649365 -0.551674
H 1.052983 0.165151 1.131237
H -4.346434 -0.292513 1.571362
H -3.688859 -1.937769 1.574742
H -2.240618 -2.652670 -0.272705
H -1.865161 -1.504372 -1.572499
H -2.730811 0.689135 -1.545938
H -3.645835 1.292767 -0.183037
N 1.443065 -0.437687 0.596151
O -1.518089 2.509381 0.094646
H -4.400552 0.126383 -1.305983
H -3.505858 -2.154432 -1.414594
H -4.914346 -1.473514 0.378761
H 0.838591 -0.236176 -1.424331
H 0.150935 1.991176 -0.948500
S 2.866047 0.224949 0.143956
O 3.425106 0.897807 1.292318
O 2.748252 0.997627 -1.079979
C 3.973072 -1.175244 -0.233837
H 4.937978 -0.748050 -0.471286
H 4.027588 -1.797624 0.648490
H 3.569054 -1.711491 -1.081659
32
Mode 0 Frame: * Frequency(6) -1377.4700
N -2.984419 -0.701221 0.016357
C -1.767192 -0.261927 0.861758
C -0.637728 0.323788 0.095266
C -0.678377 1.656499 -0.286337
C 0.443944 -0.594660 -0.471321
C -4.047610 -1.128109 0.941347
C -2.625628 -1.823949 -0.864125
C -3.478401 0.415699 -0.805007
H -2.157200 0.503922 1.534865
H -1.474434 -1.148972 1.426263
H 0.174856 -1.649399 -0.551608
H 1.070581 0.158844 1.134040
H -4.346363 -0.292482 1.571325
H -3.688803 -1.937752 1.574724
H -2.240640 -2.652629 -0.272653
H -1.865193 -1.504237 -1.572435
H -2.730681 0.689151 -1.545751
H -3.645648 1.292753 -0.183012
N 1.442267 -0.437296 0.596583
O -1.518184 2.509500 0.094693
H -4.400567 0.126408 -1.306029
H -3.505847 -2.154464 -1.414642
H -4.914418 -1.473530 0.378814
H 0.838712 -0.236175 -1.424082
H 0.151179 1.991039 -0.948206
S 2.866304 0.225118 0.143895
O 3.425035 0.897778 1.292257
O 2.748243 0.997531 -1.079841
C 3.972882 -1.175256 -0.233793
H 4.937716 -0.747859 -0.471212
H 4.027605 -1.797655 0.648520
H 3.569060 -1.711534 -1.081689
32
Mode 0 Frame: * Frequency(6) -1377.4700
N -2.984005 -0.701065 0.016504
C -1.768520 -0.262452 0.861653
C -0.635011 0.323297 0.098518
C -0.678938 1.658486 -0.287194
C 0.444978 -0.594783 -0.471327
C -4.047580 -1.128089 0.941408
C -2.625550 -1.823962 -0.864136
C -3.478328 0.415776 -0.805010
H -2.157304 0.503543 1.535415
H -1.474155 -1.148742 1.426411
H 0.174620 -1.649297 -0.551806
H 1.018266 0.177593 1.125707
H -4.346572 -0.292575 1.571434
H -3.688971 -1.937803 1.574779
H -2.240575 -2.652749 -0.272807
H -1.865098 -1.504637 -1.572626
H -2.731067 0.689102 -1.546309
H -3.646205 1.292793 -0.183086
N 1.444639 -0.438458 0.595299
O -1.517901 2.509148 0.094552
H -4.400521 0.126333 -1.305890
H -3.505881 -2.154370 -1.414500
H -4.914204 -1.473483 0.378656
H 0.838355 -0.236180 -1.424821
H 0.150453 1.991445 -0.949079
S 2.865541 0.224616 0.144078
O 3.425244 0.897863 1.292439
O 2.748268 0.997817 -1.080252
C 3.973446 -1.175222 -0.233923
H 4.938494 -0.748427 -0.471433
H 4.027556 -1.797561 0.648430
H 3.569042 -1.711406 -1.081600
32
Mode 0 Frame: * Frequency(6) -1377.4700
N -2.983083 -0.700716 0.016831
C -1.771478 -0.263624 0.861420
C -0.628956 0.322201 0.105762
C -0.680188 1.662915 -0.289102
C 0.447282 -0.595058 -0.471341
C -4.047516 -1.128046 0.941542
C -2.625376 -1.823992 -0.864161
C -3.478165 0.415949 -0.805017
H -2.157535 0.502700 1.536641
H -1.473533 -1.148230 1.426741
H 0.174095 -1.649069 -0.552247
H 0.901707 0.219367 1.107139
H -4.347038 -0.292784 1.571676
H -3.689344 -1.937915 1.574902
H -2.240431 -2.653017 -0.273149
H -1.864884 -1.505527 -1.573052
H -2.731926 0.688993 -1.547553
H -3.647445 1.292881 -0.183251
N 1.449924 -0.441048 0.592439
O -1.517272 2.508364 0.094238
H -4.400416 0.126166 -1.305581
H -3.505958 -2.154163 -1.414185
H -4.913726 -1.473376 0.378303
H 0.837560 -0.236193 -1.426467
H 0.148834 1.992351 -0.951023
S 2.863840 0.223497 0.144486
O 3.425710 0.898052 1.292843
O 2.748322 0.998455 -1.081167
C 3.974704 -1.175146 -0.234214
H 4.940227 -0.749692 -0.471927
H 4.027448 -1.797351 0.648230
H 3.569003 -1.711119 -1.081402
32
Mode 0 Frame: * Frequency(6) -1377.4700
N -2.981752 -0.700214 0.017302
C -1.775747 -0.265313 0.861083
C -0.620221 0.320620 0.116215
C -0.681992 1.669304 -0.291856
C 0.450605 -0.595454 -0.471361
C -4.047422 -1.127983 0.941737
C -2.625125 -1.824035 -0.864196
C -3.477929 0.416197 -0.805026
H -2.157867 0.501483 1.538410
H -1.472635 -1.147490 1.427216
H 0.173336 -1.648741 -0.552885
H 0.733535 0.279638 1.080350
H -4.347710 -0.293084 1.572026
H -3.689882 -1.938077 1.575079
H -2.240223 -2.653403 -0.273642
H -1.864576 -1.506812 -1.573667
H -2.733165 0.688836 -1.549348
H -3.649234 1.293009 -0.183489
N 1.457549 -0.444785 0.588312
O -1.516365 2.507233 0.093785
H -4.400266 0.125925 -1.305134
H -3.506069 -2.153863 -1.413731
H -4.913037 -1.473223 0.377795
H 0.836413 -0.236211 -1.428841
H 0.146499 1.993658 -0.953828
S 2.861385 0.221882 0.145075
O 3.426382 0.898326 1.293426
O 2.748399 0.999375 -1.082487
C 3.976519 -1.175036 -0.234633
H 4.942728 -0.751517 -0.472639
H 4.027292 -1.797047 0.647941
H 3.568947 -1.710706 -1.081116
32
Mode 0 Frame: * Frequency(6) -1377.4700
N -2.980157 -0.699611 0.017866
C -1.780863 -0.267338 0.860679
C -0.609752 0.318726 0.128742
C -0.684153 1.676962 -0.295156
C 0.454589 -0.595930 -0.471385
C -4.047310 -1.127907 0.941970
C -2.624825 -1.824087 -0.864238
C -3.477647 0.416495 -0.805038
H -2.158266 0.500025 1.540530
H -1.471560 -1.146604 1.427787
H 0.172427 -1.648347 -0.553648
H 0.531973 0.351876 1.048242
H -4.348515 -0.293445 1.572445
H -3.690527 -1.938271 1.575292
H -2.239974 -2.653866 -0.274234
H -1.864206 -1.508352 -1.574404
H -2.734651 0.688647 -1.551499
H -3.651378 1.293162 -0.183774
N 1.466689 -0.449263 0.583366
O -1.515277 2.505877 0.093241
H -4.400086 0.125636 -1.304599
H -3.506203 -2.153504 -1.413187
H -4.912211 -1.473038 0.377186
H 0.835038 -0.236233 -1.431687
H 0.143700 1.995224 -0.957191
S 2.858443 0.219948 0.145780
O 3.427187 0.898653 1.294125
O 2.748493 1.000478 -1.084069
C 3.978694 -1.174904 -0.235136
H 4.945725 -0.753704 -0.473492
H 4.027105 -1.796683 0.647595
H 3.568880 -1.710210 -1.080773
32
Mode 0 Frame: * Frequency(6) -1377.4700
N -2.978471 -0.698975 0.018464
C -1.786273 -0.269480 0.860251
C -0.598682 0.316722 0.141988
C -0.686439 1.685058 -0.298644
C 0.458801 -0.596432 -0.471411
C -4.047192 -1.127827 0.942216
C -2.624507 -1.824141 -0.864282
C -3.477349 0.416809 -0.805050
H -2.158688 0.498483 1.542772
H -1.470422 -1.145666 1.428389
H 0.171465 -1.647931 -0.554456
H 0.318865 0.428252 1.014294
H -4.349367 -0.293825 1.572887
H -3.691209 -1.938477 1.575516
H -2.239710 -2.654356 -0.274860
H -1.863816 -1.509980 -1.575182
H -2.736221 0.688447 -1.553773
H -3.653646 1.293324 -0.184076
N 1.476351 -0.453999 0.578136
O -1.514127 2.504443 0.092667
H -4.399896 0.125330 -1.304033
H -3.506343 -2.153124 -1.412611
H -4.911337 -1.472844 0.376542
H 0.833584 -0.236257 -1.434695
H 0.140742 1.996880 -0.960745
S 2.855333 0.217902 0.146526
O 3.428039 0.898999 1.294863
O 2.748591 1.001644 -1.085741
C 3.980994 -1.174766 -0.235668
H 4.948893 -0.756016 -0.474394
H 4.026907 -1.796299 0.647229
H 3.568808 -1.709686 -1.080411
32
Mode 0 Frame: * Frequency(6) -1377.4700
N -2.976876 -0.698372 0.019028
C -1.791389 -0.271505 0.859847
C -0.588213 0.314828 0.154515
C -0.688600 1.692716 -0.301944
C 0.462785 -0.596908 -0.471435
C -4.047080 -1.127751 0.942449
C -2.624207 -1.824193 -0.864324
C -3.477067 0.417107 -0.805062
H -2.159087 0.497025 1.544892
H -1.469347 -1.144780 1.428960
H 0.170556 -1.647537 -0.555219
H 0.117303 0.500490 0.982186
H -4.350172 -0.294186 1.573306
H -3.691854 -1.938671 1.575729
H -2.239461 -2.654819 -0.275452
H -1.863446 -1.511520 -1.575919
H -2.737707 0.688258 -1.555924
H -3.655790 1.293477 -0.184361
N 1.485491 -0.458477 0.573190
O -1.513039 2.503087 0.092123
H -4.399716 0.125041 -1.303498
H -3.506477 -2.152765 -1.412067
H -4.910511 -1.472659 0.375933
H 0.832209 -0.236279 -1.437541
H 0.137943 1.998446 -0.964108
S 2.852391 0.215968 0.147231
O 3.428844 0.899326 1.295562
O 2.748685 1.002747 -1.087323
C 3.983169 -1.174634 -0.236171
H 4.951890 -0.758203 -0.475247
H 4.026720 -1.795935 0.646883
H 3.568741 -1.709190 -1.080068
32
Mode 0 Frame: * Frequency(6) -1377.4700
N -2.975545 -0.697870 0.019499
C -1.795658 -0.273194 0.859510
C -0.579478 0.313247 0.164968
C -0.690404 1.699105 -0.304698
C 0.466108 -0.597304 -0.471455
C -4.046986 -1.127688 0.942644
C -2.623956 -1.824236 -0.864359
C -3.476831 0.417355 -0.805071
H -2.159419 0.495808 1.546661
H -1.468449 -1.144040 1.429435
H 0.169797 -1.647209 -0.555857
H -0.050869 0.560761 0.955397
H -4.350844 -0.294486 1.573656
H -3.692392 -1.938833 1.575906
H -2.239253 -2.655205 -0.275945
H -1.863138 -1.512805 -1.576534
H -2.738946 0.688101 -1.557719
H -3.657579 1.293605 -0.184599
N 1.493116 -0.462214 0.569063
O -1.512132 2.501956 0.091670
H -4.399566 0.124800 -1.303051
H -3.506588 -2.152465 -1.411613
H -4.909822 -1.472506 0.375425
H 0.831062 -0.236297 -1.439915
H 0.135608 1.999753 -0.966913
S 2.849936 0.214353 0.147820
O 3.429516 0.899600 1.296145
O 2.748762 1.003667 -1.088643
C 3.984984 -1.174524 -0.236590
H 4.954391 -0.760028 -0.475959
H 4.026564 -1.795631 0.646594
H 3.568685 -1.708777 -1.079782
32
Mode 0 Frame: * Frequency(6) -1377.4700
N -2.974623 -0.697521 0.019826
C -1.798616 -0.274366 0.859277
C -0.573423 0.312151 0.172212
C -0.691654 1.703534 -0.306606
C 0.468412 -0.597579 -0.471469
C -4.046922 -1.127645 0.942778
C -2.623782 -1.824266 -0.864384
C -3.476668 0.417528 -0.805078
H -2.159650 0.494965 1.547887
H -1.467827 -1.143528 1.429765
H 0.169272 -1.646981 -0.556298
H -0.167428 0.602535 0.936829
H -4.351310 -0.294695 1.573898
H -3.692765 -1.938945 1.576029
H -2.239109 -2.655473 -0.276287
H -1.862924 -1.513695 -1.576960
H -2.739805 0.687992 -1.558963
H -3.658819 1.293693 -0.184764
N 1.498401 -0.464804 0.566203
O -1.511503 2.501172 0.091356
H -4.399461 0.124633 -1.302742
H -3.506665 -2.152258 -1.411298
H -4.909344 -1.472399 0.375072
H 0.830267 -0.236310 -1.441561
H 0.133989 2.000659 -0.968857
S 2.848235 0.213234 0.148228
O 3.429982 0.899789 1.296549
O 2.748816 1.004305 -1.089558
C 3.986242 -1.174448 -0.236881
H 4.956124 -0.761293 -0.476453
H 4.026456 -1.795421 0.646394
H 3.568646 -1.708490 -1.079584
32
Mode 0 Frame: * Frequency(6) -1377.4700
N -2.974209 -0.697365 0.019973
C -1.799944 -0.274891 0.859172
C -0.570706 0.311660 0.175464
C -0.692215 1.705521 -0.307463
C 0.469446 -0.597702 -0.471475
C -4.046892 -1.127625 0.942839
C -2.623704 -1.824279 -0.864395
C -3.476595 0.417605 -0.805081
H -2.159754 0.494586 1.548437
H -1.467548 -1.143298 1.429913
H 0.169036 -1.646879 -0.556496
H -0.219743 0.621284 0.928496
H -4.351519 -0.294788 1.574007
H -3.692933 -1.938996 1.576084
H -2.239044 -2.655593 -0.276441
H -1.862829 -1.514095 -1.577151
H -2.740191 0.687943 -1.559521
H -3.659376 1.293733 -0.184838
N 1.500773 -0.465966 0.564919
O -1.511220 2.500820 0.091215
H -4.399415 0.124558 -1.302603
H -3.506699 -2.152164 -1.411156
H -4.909130 -1.472352 0.374914
H 0.829910 -0.236315 -1.442300
H 0.133263 2.001065 -0.969730
S 2.847472 0.212732 0.148411
O 3.430191 0.899874 1.296731
O 2.748841 1.004591 -1.089969
C 3.986806 -1.174414 -0.237011
H 4.956902 -0.761861 -0.476674
H 4.026407 -1.795327 0.646304
H 3.568628 -1.708362 -1.079495
32
Mode 0 Frame: * Frequency(6) -1377.4700
N -2.974348 -0.697417 0.019923
C -1.799498 -0.274714 0.859207
C -0.571620 0.311825 0.174370
C -0.692026 1.704853 -0.307174
C 0.469098 -0.597661 -0.471473
C -4.046902 -1.127632 0.942818
C -2.623730 -1.824275 -0.864391
C -3.476619 0.417579 -0.805080
H -2.159719 0.494714 1.548252
H -1.467642 -1.143375 1.429863
H 0.169115 -1.646913 -0.556430
H -0.202145 0.614977 0.931299
H -4.351448 -0.294757 1.573970
H -3.692877 -1.938979 1.576066
H -2.239066 -2.655552 -0.276389
H -1.862861 -1.513960 -1.577087
H -2.740061 0.687959 -1.559334
H -3.659189 1.293719 -0.184813
N 1.499975 -0.465575 0.565351
O -1.511315 2.500939 0.091262
H -4.399430 0.124583 -1.302649
H -3.506688 -2.152196 -1.411204
H -4.909202 -1.472368 0.374967
H 0.830031 -0.236314 -1.442051
H 0.133507 2.000928 -0.969436
S 2.847729 0.212901 0.148350
O 3.430120 0.899845 1.296670
O 2.748832 1.004495 -1.089831
C 3.986616 -1.174426 -0.236967
H 4.956640 -0.761670 -0.476600
H 4.026424 -1.795358 0.646334
H 3.568634 -1.708405 -1.079525
32
Mode 0 Frame: * Frequency(6) -1377.4700
N -2.975026 -0.697673 0.019683
C -1.797325 -0.273854 0.859379
C -0.576067 0.312630 0.169049
C -0.691108 1.701600 -0.305773
C 0.467406 -0.597459 -0.471462
C -4.046950 -1.127664 0.942719
C -2.623858 -1.824253 -0.864373
C -3.476739 0.417452 -0.805075
H -2.159549 0.495333 1.547352
H -1.468099 -1.143752 1.429621
H 0.169501 -1.647081 -0.556105
H -0.116540 0.584297 0.944935
H -4.351106 -0.294604 1.573792
H -3.692603 -1.938896 1.575975
H -2.239172 -2.655356 -0.276138
H -1.863018 -1.513306 -1.576774
H -2.739430 0.688040 -1.558420
H -3.658278 1.293654 -0.184692
N 1.496093 -0.463673 0.567451
O -1.511777 2.501514 0.091493
H -4.399507 0.124706 -1.302877
H -3.506631 -2.152348 -1.411435
H -4.909553 -1.472446 0.375226
H 0.830614 -0.236304 -1.440843
H 0.134696 2.000263 -0.968008
S 2.848978 0.213723 0.148050
O 3.429778 0.899706 1.296373
O 2.748793 1.004026 -1.089159
C 3.985692 -1.174482 -0.236754
H 4.955367 -0.760741 -0.476237
H 4.026503 -1.795513 0.646481
H 3.568663 -1.708615 -1.079671
32
Mode 0 Frame: * Frequency(6) -1377.4700
N -2.976168 -0.698105 0.019279
C -1.793661 -0.272404 0.859668
C -0.583564 0.313986 0.160078
C -0.689560 1.696117 -0.303410
C 0.464554 -0.597119 -0.471445
C -4.047030 -1.127718 0.942553
C -2.624073 -1.824216 -0.864343
C -3.476941 0.417239 -0.805067
H -2.159264 0.496377 1.545834
H -1.468869 -1.144386 1.429213
H 0.170152 -1.647363 -0.555559
H 0.027794 0.532569 0.967927
H -4.350530 -0.294346 1.573492
H -3.692141 -1.938757 1.575823
H -2.239350 -2.655024 -0.275714
H -1.863282 -1.512204 -1.576246
H -2.738367 0.688175 -1.556880
H -3.656742 1.293545 -0.184488
N 1.489549 -0.460466 0.570993
O -1.512556 2.502485 0.091882
H -4.399636 0.124913 -1.303260
H -3.506536 -2.152605 -1.411825
H -4.910144 -1.472578 0.375662
H 0.831599 -0.236288 -1.438805
H 0.136700 1.999142 -0.965601
S 2.851085 0.215108 0.147545
O 3.429202 0.899472 1.295872
O 2.748726 1.003237 -1.088026
C 3.984135 -1.174576 -0.236394
H 4.953221 -0.759175 -0.475626
H 4.026637 -1.795773 0.646729
H 3.568711 -1.708970 -1.079916
32
Mode 0 Frame: * Frequency(6) -1377.4700
N -2.977651 -0.698665 0.018754
C -1.788904 -0.270521 0.860044
C -0.593299 0.315748 0.148430
C -0.687550 1.688996 -0.300341
C 0.460849 -0.596677 -0.471423
C -4.047134 -1.127788 0.942336
C -2.624353 -1.824168 -0.864304
C -3.477204 0.416962 -0.805056
H -2.158893 0.497733 1.543862
H -1.469869 -1.145211 1.428683
H 0.170998 -1.647729 -0.554848
H 0.215217 0.465398 0.997783
H -4.349781 -0.294011 1.573103
H -3.691541 -1.938577 1.575626
H -2.239582 -2.654594 -0.275164
H -1.863626 -1.510772 -1.575561
H -2.736985 0.688350 -1.554879
H -3.654748 1.293403 -0.184223
N 1.481051 -0.456302 0.575593
O -1.513568 2.503746 0.092387
H -4.399803 0.125182 -1.303758
H -3.506412 -2.152939 -1.412331
H -4.910913 -1.472749 0.376229
H 0.832877 -0.236268 -1.436159
H 0.139302 1.997685 -0.962474
S 2.853820 0.216907 0.146889
O 3.428453 0.899167 1.295223
O 2.748639 1.002211 -1.086555
C 3.982112 -1.174698 -0.235926
H 4.950434 -0.757141 -0.474833
H 4.026811 -1.796112 0.647051
H 3.568774 -1.709431 -1.080235
32
Mode 0 Frame: * Frequency(6) -1377.4700
N -2.979314 -0.699293 0.018165
C -1.783568 -0.268409 0.860465
C -0.604217 0.317724 0.135365
C -0.685296 1.681010 -0.296900
C 0.456695 -0.596181 -0.471398
C -4.047251 -1.127867 0.942093
C -2.624666 -1.824114 -0.864260
C -3.477498 0.416652 -0.805044
H -2.158477 0.499254 1.541651
H -1.470991 -1.146135 1.428088
H 0.171946 -1.648139 -0.554052
H 0.425419 0.390064 1.031268
H -4.348941 -0.293635 1.572666
H -3.690868 -1.938374 1.575404
H -2.239842 -2.654111 -0.274547
H -1.864011 -1.509166 -1.574793
H -2.735436 0.688547 -1.552636
H -3.652512 1.293243 -0.183925
N 1.471520 -0.451631 0.580751
O -1.514702 2.505160 0.092954
H -4.399991 0.125483 -1.304316
H -3.506273 -2.153314 -1.412899
H -4.911774 -1.472941 0.376864
H 0.834311 -0.236245 -1.433191
H 0.142221 1.996052 -0.958968
S 2.856888 0.218925 0.146153
O 3.427613 0.898826 1.294494
O 2.748542 1.001061 -1.084905
C 3.979844 -1.174835 -0.235402
H 4.947309 -0.754860 -0.473943
H 4.027006 -1.796491 0.647412
H 3.568844 -1.709948 -1.080592
