
                                 *****************
                                 * O   R   C   A *
                                 *****************

                                            #,                                       
                                            ###                                      
                                            ####                                     
                                            #####                                    
                                            ######                                   
                                           ########,                                 
                                     ,,################,,,,,                         
                               ,,#################################,,                 
                          ,,##########################################,,             
                       ,#########################################, ''#####,          
                    ,#############################################,,   '####,        
                  ,##################################################,,,,####,       
                ,###########''''           ''''###############################       
              ,#####''   ,,,,##########,,,,          '''####'''          '####       
            ,##' ,,,,###########################,,,                        '##       
           ' ,,###''''                  '''############,,,                           
         ,,##''                                '''############,,,,        ,,,,,,###''
      ,#''                                            '''#######################'''  
     '                                                          ''''####''''         
             ,#######,   #######,   ,#######,      ##                                
            ,#'     '#,  ##    ##  ,#'     '#,    #''#        ,####,    ,#,          
            ##       ##  ##   ,#'  ##            #'  '#       #'       ,# #          
            ##       ##  #######   ##           ,######,      #####,      #          
            '#,     ,#'  ##    ##  '#,     ,#' ,#      #,     #,   #      #          
             '#######'   ##     ##  '#######'  #'      '#     '####' #    #          



                #########################################################
                #                        -***-                          #
                #          Department of theory and spectroscopy        #
                #                                                       #
                #                      Frank Neese                      #
                #                                                       #
                #     Directorship, Architecture, Infrastructure        #
                #                    SHARK, DRIVERS                     #
                #        Core code/Algorithms in most modules           #
                #                                                       #
                #        Max Planck Institute fuer Kohlenforschung      #
                #                Kaiser Wilhelm Platz 1                 #
                #                 D-45470 Muelheim/Ruhr                 #
                #                      Germany                          #
                #                                                       #
                #                  All rights reserved                  #
                #                        -***-                          #
                #########################################################


                         Program Version 6.1.0  -  RELEASE   -
                                (GIT: $679e74b$)
                          ($2025-06-10 18:02:51 +0200$)


 With contributions from (in alphabetic order):
[Max-Planck-Institut fuer Kohlenforschung]                               
  Daniel Aravena         : Magnetic Suceptibility                        
  Michael Atanasov       : Ab Initio Ligand Field Theory (pilot matlab implementation)
  Alexander A. Auer      : GIAO ZORA, VPT2 properties, NMR spectrum      
  Ute Becker             : All parallelization in ORCA, NUMFREQ, NUMCALC 
  Giovanni Bistoni       : ED, misc. LED, open-shell LED, HFLD           
  Dmytro Bykov           : pre 5.0 version of the SCF Hessian            
  Marcos Casanova-Páez   : Triplet and SCS-CIS(D). UHF-(DLPNO)-IP/EA/STEOM-CCSD. UHF-CVS-IP/STEOM-CCSD   
  Vijay G. Chilkuri      : MRCI spin determinant printing, contributions to CSF-ICE 
  Pauline Colinet        : FMM embedding                                 
  Dipayan Datta          : RHF DLPNO-CCSD density                        
  Achintya Kumar Dutta   : EOM-CC, STEOM-CC                              
  Nicolas Foglia         : Exact transition moments, OPA infrastructure, MCD improvements    
  Dmitry Ganyushin       : Spin-Orbit,Spin-Spin,Magnetic field MRCI      
  Miquel Garcia-Rates    : C-PCM and meta-GGA Hessian, CCSD/C-PCM, Gaussian charge scheme 
  Tiago L. C. Gouveia    : GS-ROHF, GS-ROCIS                             
  Yang Guo               : DLPNO-NEVPT2, F12-NEVPT2, CIM, IAO-localization        
  Andreas Hansen         : Spin unrestricted coupled pair/coupled cluster methods 
  Ingolf Harden          : AUTO-CI MPn and infrastructure                
  Benjamin Helmich-Paris : MC-RPA, TRAH-(SCF,CASSCF), AVAS, COSX integrals, SCF dyn. polar., MC-PDFT, srDFT 
  Lee Huntington         : MR-EOM, pCC                                   
  Robert Izsak           : Overlap fitted RIJCOSX, COSX-SCS-MP3, EOM     
  Riya Kayal             : Wick's Theorem for AUTO-CI, AUTO-CI UHF-CCSDT 
  Emily Kempfer          : AUTO-CI RHF CISDT and CCSDT, approximate NEVPT4
  Christian Kollmar      : KDIIS, OOCD, Brueckner-CCSD(T), CCSD density, CASPT2, CASPT2-K, improved NEVPT2 
  Axel Koslowski         : Symmetry handling                             
  Simone Kossmann        : meta-GGA functionals, TD-DFT gradient, OOMP2, (MP2 Hessian; deprecated post 5.0) 
  Lucas Lang             : DCDCAS, Hyperfine gauge corrections, ICE-SOC+SSC
  Marvin Lechner         : AUTO-CI (C++ implementation), FIC-MRCC        
  Spencer Leger          : CASSCF response                               
  Dagmar Lenk            : GEPOL surface, SMD, ORCA-2-JSON               
  Dimitrios Liakos       : Extrapolation schemes; Compound Job, Property file
  Dimitrios Manganas     : Further ROCIS development; embedding schemes. LFT, Crystal Embedding 
  Dimitrios Pantazis     : SARC Basis sets                               
  Anastasios Papadopoulos: AUTO-CI, single reference methods and gradients 
  Taras Petrenko         : pre 6.0 DFT Hessian and TD-DFT gradient,  ECA, NRVS 
  Petra Pikulova         : Analytic Raman intensities                    
  Peter Pinski           : DLPNO-MP2, DLPNO-MP2 Gradient                 
  Shashank Vittal Rao    : ES-AILFT, MagRelax                            
  Christoph Reimann      : Effective Core Potentials                     
  Marius Retegan         : Local ZFS, SOC                                
  Christoph Riplinger    : Optimizer, TS searches, QM/MM, DLPNO-CCSD(T), (RO)-DLPNO pert. Triples 
  Michael Roemelt        : Original ROCIS implementation, recursive CI coupling coefficients
  Masaaki Saitow         : Open-shell DLPNO-CCSD energy and density      
  Barbara Sandhoefer     : DKH picture change effects                    
  Yorick L. A. Schmerwitz: GMF and freeze-and-release deltaSCF, NEB S-IDPP initial path                    
  Kantharuban Sivalingam : CASSCF convergence/infrastructure, NEVPT2, NEVPT3, NEVPT4(SD), FIC-MRCI and CEPA variants
  Bernardo de Souza      : ESD, SOC TD-DFT                               
  Georgi L. Stoychev     : AutoAux, RI-MP2 NMR, DLPNO-MP2 response, X2C  
  Van Anh Tran           : RI-MP2 g-tensors                              
  Willem Van den Heuvel  : Paramagnetic NMR                              
  Zikuan Wang            : NOTCH, Electric field optimization            
  Frank Wennmohs         : Technical directorship and infrastructure     
  Hang Xu                : AUTO-CI-Response properties                   
                                                                         
[FACCTs GmbH]                                                            
  Markus Bursch, Nicolas Foglia, Miquel Garcia-Rates, Ingolf Harden, Hagen Neugebauer, Anastasios Papadopoulos, 
  Christoph Riplinger, Bernardo de Souza, Georgi L. Stoychev                                                    
                                                                 
  APM, various basis sets, CI-OPT, improved COSX, DLPNO-Multilevel,           
  DOCKER, DRACO, updates on ESD, Fragmentator, GOAT, IRC, LR-CPCM, L-BFGS, MBIS, meta-GGA TD-DFT gradient, ML-optimized integration grids, 
  MM, NACMEs, nearIR, NEB, NEB-TS, NL-DFT gradient (VV10), 2- and 3-layer-ONIOM, interface openCOSMO-RS, QMMM,   
  Crystal-QMMM, RESP, rigid body optimization, SF, symmetry and pop. for TD-DFT, various functionals, SOLVATOR                                   
                                                                         
[Other institutions]                                                     
  V. Asgeirsson          : NEB                                           
  Christoph Bannwarth    : sTDA-DFT, sTD-DFT, PBEh-3c, B97-3c, D3        
  Giovanni Bistoni       : ETS/NOCV, ADLD/ADEX, COVALED                  
  Martin Brehm           : Molecular dynamics                            
  Ronald Cardenas        : ETS/NOCV                                      
  Martina Colucci        : COVALED                                       
  Sebastian Ehlert       : rSCAN, r2SCAN, r2SCAN-3c, D4, dhf basis sets  
  Marvin Friede          : D4 for Fr, Ra, Ac-Lr                          
  Lars Goerigk           : TD-DFT with DH, B97 family of functionals     
  Stefan Grimme          : VdW corrections, initial TS optimization, DFT functionals, gCP, sTDA/sTD-DF 
  Waldemar Hujo          : DFT-NL                                        
  H. Jonsson             : NEB                                           
  Holger Kruse           : gCP                                           
  Marcel Mueller         : wB97X-3c, vDZP basis set                      
  Hagen Neugebauer       : wr2SCAN, Native XTB                           
  Gianluca Regni         : ADLD/ADEX                                     
  Tobias Risthaus        : pre 6.0 range-separated hybrid DFT and stability analysis
  Lukas Wittmann         : regularized MP2, r2SCAN double-hybrids, wr2SCAN        
                                                                         
We gratefully acknowledge several colleagues who have allowed us to      
interface, adapt or use parts of their codes:                            
  Ed Valeev, F. Pavosevic, A. Kumar             : LibInt (2-el integral package), F12 methods 
  Garnet Chan, S. Sharma, J. Yang, R. Olivares  : DMRG                   
  Ulf Ekstrom                                   : XCFun DFT Library      
  Mihaly Kallay                                 : mrcc  (arbitrary order and MRCC methods)
  Frank Weinhold                                : gennbo (NPA and NBO analysis)           
  Simon Mueller                                 : openCOSMO-RS                            
  Christopher J. Cramer and Donald G. Truhlar   : smd solvation model                     
  S Lehtola, MJT Oliveira, MAL Marques          : LibXC Library                           
  Liviu Ungur et al                             : ANISO software                          


 Your calculation uses the libint2 library for the computation of 2-el integrals
 For citations please refer to: http://libint.valeyev.net

 Your ORCA version has been built with support for libXC version: 7.0.0
 For citations please refer to: https://libxc.gitlab.io

 This ORCA versions uses:
   CBLAS   interface :  Fast vector & matrix operations
   LAPACKE interface :  Fast linear algebra routines
   SCALAPACK package :  Parallel linear algebra routines
   Shared memory     :  Shared parallel matrices
   BLAS/LAPACK       :  OpenBLAS 0.3.29  USE64BITINT DYNAMIC_ARCH NO_AFFINITY Cooperlake SINGLE_THREADED
        Core in use  :  Cooperlake
   Copyright (c) 2011-2014, The OpenBLAS Project


  ***********************************
  * Starting time: Mon Oct 27 17:15:40 2025
  * Host name:     node048.aire.lee.alces.network
  * Process ID:    848999
  * Working dir.:  /mnt/scratch/hbxr153/2000223
  ***********************************

NOTE: MaxCore=500 MB was set to SCF,MP2,MDCI,CIPSI,MRCI,RASCI and CIS
      => If you want to overwrite this, your respective input block should be placed after the MaxCore statement


***************************************
The coordinates will be read from file: aMBH.xyz
***************************************


Your calculation utilizes the semiempirical GFN2-xTB method
Please cite in your paper:
Bannwarth, C.; Ehlert S.; Grimme, S. J. Chem. Theory Comput. 2019, 15, 1652.
   

================================================================================

================================================================================
                                        WARNINGS
                       Please study these warnings very carefully!
================================================================================


WARNING: Analytical Hessian for XTB is limited in the analysis of the data.
       : If you want to obtain extensive IR and deltaG analysis, please use ! XTB NumFreq. 


WARNING: Geometry Optimization
  ===> : Switching off AutoStart
         For restart on a previous wavefunction, please use MOREAD

WARNING: Found dipole moment calculation with XTB calculation
  ===> : Switching off dipole moment calculation


WARNING: Found frequency calculation in combination with XTB calculation
  ===> : Need to redirect dipole moment calculation to properties.out


================================================================================
                                       INPUT FILE
================================================================================
NAME = /scratch/hbxr153/2000223/aMBH.inp
|  1> ! xtb optTS freq alpb(toluene) xyzfile
|  2> %maxcore 500
|  3> %pal
|  4>   nprocs 16
|  5> end
|  6> 
|  7> %geom
|  8>   calc_hess true
|  9>   recalc_hess 5
| 10>   MaxIter 200
| 11>   TS_mode {B 2 11} end
| 12> end
| 13> %geom
| 14>     modify_internal
| 15>         {B 2 11 A} {B 11 18 A}
| 16>     end
| 17> end
| 18> * xyzfile 0 1 aMBH.xyz
| 19> 
| 20>                          ****END OF INPUT****
================================================================================

                       *****************************
                       * Geometry Optimization Run *
                       *****************************

Geometry optimization settings:
Update method            Update   .... Bofill
Choice of coordinates    CoordSys .... (2022) Redundant Internals
Initial Hessian          InHess   .... Almloef's Model
Max. no of cycles        MaxIter  .... 200

Convergence Tolerances:
Energy Change            TolE     ....  5.0000e-06 Eh
Max. Gradient            TolMAXG  ....  3.0000e-04 Eh/bohr
RMS Gradient             TolRMSG  ....  1.0000e-04 Eh/bohr
Max. Displacement        TolMAXD  ....  4.0000e-03 bohr
RMS Displacement         TolRMSD  ....  2.0000e-03 bohr
Strict Convergence                .... False

------------------------------------------------------------------------------
                        ORCA OPTIMIZATION COORDINATE SETUP
------------------------------------------------------------------------------

The optimization will be done in redundant internal coordinates (2022)
Making redundant internal coordinates   ...  (2022 redundants) Bond  11,  2 is already included
done
Following TS mode number                ...    internal coordinate number: 11
Evaluating the initial hessian          ...  (Is done on the fly) done
Evaluating the coordinates              ...  done
Calculating the B-matrix                .... done
Calculating the G-matrix                .... done
The number of degrees of freedom        ....  143

    -----------------------------------------------------------------
                    Redundant Internal Coordinates


    -----------------------------------------------------------------
         Definition                    Initial Value    d2E/dq (diagonal element)
    -----------------------------------------------------------------
      1. B(C   1,N   0)                  1.5833         0.000000   
      2. B(C   2,C   1)                  1.4888         0.000000   
      3. B(C   3,C   2)                  1.4452         0.000000   
      4. B(C   4,C   2)                  1.5394         0.000000   
      5. B(C   5,N   0)                  1.5055         0.000000   
      6. B(C   6,N   0)                  1.5039         0.000000   
      7. B(C   7,N   0)                  1.5091         0.000000   
      8. B(H   8,C   1)                  1.0786         0.000000   
      9. B(H   9,C   1)                  1.0800         0.000000   
     10. B(H  10,C   4)                  1.0826         0.000000   
     11. B(H  11,C   2)                  1.3410         0.000000   
     12. B(H  12,C   5)                  1.0787         0.000000   
     13. B(H  13,C   5)                  1.0798         0.000000   
     14. B(H  14,C   6)                  1.0792         0.000000   
     15. B(H  15,C   6)                  1.0746         0.000000   
     16. B(H  16,C   7)                  1.0774         0.000000   
     17. B(H  17,C   7)                  1.0754         0.000000   
     18. B(N  18,C   4)                  1.5038         0.000000   
     19. B(N  18,H  11)                  1.4035         0.000000   
     20. B(O  19,C   3)                  1.2289         0.000000   
     21. B(H  20,C   7)                  1.0805         0.000000   
     22. B(H  21,C   6)                  1.0807         0.000000   
     23. B(H  22,C   5)                  1.0803         0.000000   
     24. B(H  23,C   4)                  1.0821         0.000000   
     25. B(H  24,C   3)                  1.0869         0.000000   
     26. B(S  25,N  18)                  1.5856         0.000000   
     27. B(O  26,S  25)                  1.4401         0.000000   
     28. B(O  27,S  25)                  1.4479         0.000000   
     29. B(C  28,S  25)                  1.7612         0.000000   
     30. B(H  29,C  28)                  1.0822         0.000000   
     31. B(H  30,C  28)                  1.0804         0.000000   
     32. B(H  31,C  28)                  1.0818         0.000000   
     33. A(C   5,N   0,C   7)          109.2357         0.000000   
     34. A(C   6,N   0,C   7)          109.6103         0.000000   
     35. A(C   1,N   0,C   6)          110.6625         0.000000   
     36. A(C   1,N   0,C   5)          107.3442         0.000000   
     37. A(C   1,N   0,C   7)          110.9230         0.000000   
     38. A(C   5,N   0,C   6)          109.0090         0.000000   
     39. A(C   2,C   1,H   9)          110.9262         0.000000   
     40. A(N   0,C   1,H   9)          104.0179         0.000000   
     41. A(C   2,C   1,H   8)          108.5825         0.000000   
     42. A(H   8,C   1,H   9)          110.9906         0.000000   
     43. A(N   0,C   1,H   8)          103.1245         0.000000   
     44. A(N   0,C   1,C   2)          118.8712         0.000000   
     45. A(C   1,C   2,C   4)          119.7667         0.000000   
     46. A(C   1,C   2,C   3)          116.1239         0.000000   
     47. A(C   3,C   2,H  11)          111.8014         0.000000   
     48. A(C   1,C   2,H  11)           99.2855         0.000000   
     49. A(C   3,C   2,C   4)          121.1438         0.000000   
     50. A(C   4,C   2,H  11)           76.1604         0.000000   
     51. A(C   2,C   3,H  24)          114.3449         0.000000   
     52. A(C   2,C   3,O  19)          125.2580         0.000000   
     53. A(O  19,C   3,H  24)          120.2914         0.000000   
     54. A(H  10,C   4,N  18)          113.9096         0.000000   
     55. A(H  10,C   4,H  23)          108.5096         0.000000   
     56. A(N  18,C   4,H  23)          111.8265         0.000000   
     57. A(C   2,C   4,N  18)           94.8913         0.000000   
     58. A(C   2,C   4,H  23)          111.4271         0.000000   
     59. A(C   2,C   4,H  10)          115.8454         0.000000   
     60. A(H  12,C   5,H  13)          110.0309         0.000000   
     61. A(N   0,C   5,H  13)          108.7949         0.000000   
     62. A(H  13,C   5,H  22)          110.0916         0.000000   
     63. A(N   0,C   5,H  12)          108.6125         0.000000   
     64. A(H  12,C   5,H  22)          110.0906         0.000000   
     65. A(N   0,C   5,H  22)          109.1854         0.000000   
     66. A(H  14,C   6,H  15)          109.8076         0.000000   
     67. A(N   0,C   6,H  15)          108.8434         0.000000   
     68. A(N   0,C   6,H  14)          108.9385         0.000000   
     69. A(H  15,C   6,H  21)          110.1719         0.000000   
     70. A(H  14,C   6,H  21)          110.1965         0.000000   
     71. A(N   0,C   6,H  21)          108.8494         0.000000   
     72. A(H  16,C   7,H  17)          108.9709         0.000000   
     73. A(N   0,C   7,H  17)          108.4869         0.000000   
     74. A(N   0,C   7,H  16)          108.2322         0.000000   
     75. A(H  17,C   7,H  20)          112.3152         0.000000   
     76. A(H  16,C   7,H  20)          110.2662         0.000000   
     77. A(N   0,C   7,H  20)          108.4695         0.000000   
     78. A(C   4,N  18,S  25)          120.8923         0.000000   
     79. A(O  27,S  25,C  28)          106.0179         0.000000   
     80. A(O  26,S  25,C  28)          106.2135         0.000000   
     81. A(N  18,S  25,C  28)          104.9145         0.000000   
     82. A(O  26,S  25,O  27)          118.2050         0.000000   
     83. A(N  18,S  25,O  27)          110.7839         0.000000   
     84. A(N  18,S  25,O  26)          109.7040         0.000000   
     85. A(H  30,C  28,H  31)          109.7395         0.000000   
     86. A(H  29,C  28,H  31)          108.8952         0.000000   
     87. A(S  25,C  28,H  31)          110.1031         0.000000   
     88. A(H  29,C  28,H  30)          109.2923         0.000000   
     89. A(S  25,C  28,H  30)          109.5060         0.000000   
     90. A(S  25,C  28,H  29)          109.2862         0.000000   
     91. D(H   8,C   1,N   0,C   5)    -39.8008         0.000000   
     92. D(C   2,C   1,N   0,C   6)     81.2055         0.000000   
     93. D(H   8,C   1,N   0,C   7)     79.4686         0.000000   
     94. D(H   8,C   1,N   0,C   6)   -158.6477         0.000000   
     95. D(C   2,C   1,N   0,C   5)   -159.9477         0.000000   
     96. D(C   2,C   1,N   0,C   7)    -40.6782         0.000000   
     97. D(C   4,C   2,C   1,H   9)     40.8056         0.000000   
     98. D(C   3,C   2,C   1,N   0)     81.0908         0.000000   
     99. D(C   4,C   2,C   1,H   8)    163.0250         0.000000   
    100. D(C   4,C   2,C   1,N   0)    -79.6569         0.000000   
    101. D(C   3,C   2,C   1,H   9)   -158.4466         0.000000   
    102. D(C   3,C   2,C   1,H   8)    -36.2272         0.000000   
    103. D(O  19,C   3,C   2,H  11)   -109.8087         0.000000   
    104. D(O  19,C   3,C   2,C   1)      3.1285         0.000000   
    105. D(O  19,C   3,C   2,C   4)    163.5911         0.000000   
    106. D(H  24,C   3,C   2,C   4)    -20.1584         0.000000   
    107. D(H  24,C   3,C   2,C   1)    179.3789         0.000000   
    108. D(N  18,C   4,C   2,C   3)    121.4164         0.000000   
    109. D(N  18,C   4,C   2,C   1)    -78.8202         0.000000   
    110. D(H  10,C   4,C   2,H  11)    133.6436         0.000000   
    111. D(H  10,C   4,C   2,C   3)   -119.0166         0.000000   
    112. D(N  18,C   4,C   2,H  11)     14.0767         0.000000   
    113. D(H  10,C   4,C   2,C   1)     40.7467         0.000000   
    114. D(H  13,C   5,N   0,C   7)   -176.6694         0.000000   
    115. D(H  13,C   5,N   0,C   6)     63.5831         0.000000   
    116. D(H  13,C   5,N   0,C   1)    -56.3233         0.000000   
    117. D(H  12,C   5,N   0,C   7)    -56.9070         0.000000   
    118. D(H  12,C   5,N   0,C   6)   -176.6545         0.000000   
    119. D(H  12,C   5,N   0,C   1)     63.4391         0.000000   
    120. D(H  14,C   6,N   0,C   5)    -60.4456         0.000000   
    121. D(H  14,C   6,N   0,C   1)     57.3877         0.000000   
    122. D(H  15,C   6,N   0,C   7)     60.3269         0.000000   
    123. D(H  15,C   6,N   0,C   5)    179.8422         0.000000   
    124. D(H  15,C   6,N   0,C   1)    -62.3245         0.000000   
    125. D(H  14,C   6,N   0,C   7)   -179.9608         0.000000   
    126. D(H  17,C   7,N   0,C   6)   -171.9143         0.000000   
    127. D(H  17,C   7,N   0,C   5)     68.7096         0.000000   
    128. D(H  17,C   7,N   0,C   1)    -49.4177         0.000000   
    129. D(H  16,C   7,N   0,C   6)    -53.8132         0.000000   
    130. D(H  16,C   7,N   0,C   5)   -173.1893         0.000000   
    131. D(H  16,C   7,N   0,C   1)     68.6834         0.000000   
    132. D(S  25,N  18,C   4,H  23)    -37.9749         0.000000   
    133. D(S  25,N  18,C   4,H  10)     85.5047         0.000000   
    134. D(S  25,N  18,C   4,C   2)   -153.3942         0.000000   
    135. D(C  28,S  25,N  18,C   4)    -99.7066         0.000000   
    136. D(O  27,S  25,N  18,C   4)     14.2801         0.000000   
    137. D(O  26,S  25,N  18,C   4)    146.5707         0.000000   
    138. D(H  30,C  28,S  25,O  27)   -176.4502         0.000000   
    139. D(H  30,C  28,S  25,O  26)     56.9969         0.000000   
    140. D(H  30,C  28,S  25,N  18)    -59.1591         0.000000   
    141. D(H  29,C  28,S  25,O  27)     63.8602         0.000000   
    142. D(H  29,C  28,S  25,O  26)    -62.6926         0.000000   
    143. D(H  29,C  28,S  25,N  18)   -178.8486         0.000000   
    -----------------------------------------------------------------

Number of atoms                         .... 32
Number of degrees of freedom            .... 143


         *************************************************************
         *                GEOMETRY OPTIMIZATION CYCLE   1            *
         *************************************************************
---------------------------------
CARTESIAN COORDINATES (ANGSTROEM)
---------------------------------
  N    -2.756759   -0.802887    0.027230
  C    -1.569020   -0.094429    0.798162
  C    -0.676526    0.831752    0.048395
  C    -1.174041    2.174171   -0.149122
  C     0.448401    0.261634   -0.834409
  C    -3.756439   -1.252866    1.059123
  C    -2.257701   -2.004009   -0.727762
  C    -3.425611    0.154281   -0.928745
  H    -2.076165    0.465168    1.568258
  H    -1.006706   -0.913441    1.221754
  H     0.194027   -0.616218   -1.414591
  H     0.389684    0.810353    0.861474
  H    -4.153806   -0.381889    1.556301
  H    -3.256532   -1.890373    1.772994
  H    -1.782474   -2.680933   -0.034438
  H    -1.546634   -1.679584   -1.465217
  H    -2.734852    0.371739   -1.726419
  H    -3.647460    1.064354   -0.400598
  N     1.382826   -0.014558    0.311064
  O    -2.233075    2.610866    0.295815
  H    -4.313957   -0.319101   -1.321561
  H    -3.096552   -2.488650   -1.206760
  H    -4.551778   -1.795979    0.569741
  H     0.844514    1.013371   -1.504494
  H    -0.495397    2.828435   -0.690183
  S     2.953155   -0.038803    0.092987
  O     3.614979    0.452941    1.273694
  O     3.303812    0.548900   -1.183021
  C     3.367681   -1.746242   -0.028043
  H     4.437271   -1.845975   -0.158951
  H     3.069937   -2.254821    0.877462
  H     2.867727   -2.190897   -0.878116

----------------------------
CARTESIAN COORDINATES (A.U.)
----------------------------
  NO LB    ZA    FRAG    MASS        X           Y           Z
   0 N   7.0000    0    14.007   -5.209520   -1.517237    0.051457
   1 C   6.0000    0    12.011   -2.965018   -0.178445    1.508308
   2 C   6.0000    0    12.011   -1.278449    1.571783    0.091453
   3 C   6.0000    0    12.011   -2.218616    4.108588   -0.281800
   4 C   6.0000    0    12.011    0.847355    0.494417   -1.576804
   5 C   6.0000    0    12.011   -7.098641   -2.367574    2.001452
   6 C   6.0000    0    12.011   -4.266437   -3.787028   -1.375271
   7 C   6.0000    0    12.011   -6.473467    0.291549   -1.755074
   8 H   1.0000    0     1.008   -3.923383    0.879040    2.963578
   9 H   1.0000    0     1.008   -1.902399   -1.726153    2.308780
  10 H   1.0000    0     1.008    0.366658   -1.164483   -2.673190
  11 H   1.0000    0     1.008    0.736396    1.531345    1.627950
  12 H   1.0000    0     1.008   -7.849556   -0.721666    2.940983
  13 H   1.0000    0     1.008   -6.153954   -3.572287    3.350473
  14 H   1.0000    0     1.008   -3.368388   -5.066229   -0.065078
  15 H   1.0000    0     1.008   -2.922715   -3.173954   -2.768859
  16 H   1.0000    0     1.008   -5.168121    0.702485   -3.262459
  17 H   1.0000    0     1.008   -6.892700    2.011338   -0.757021
  18 N   7.0000    0    14.007    2.613162   -0.027511    0.587826
  19 O   8.0000    0    15.999   -4.219900    4.933822    0.559009
  20 H   1.0000    0     1.008   -8.152197   -0.603013   -2.497388
  21 H   1.0000    0     1.008   -5.851635   -4.702867   -2.280446
  22 H   1.0000    0     1.008   -8.601614   -3.393908    1.076654
  23 H   1.0000    0     1.008    1.595900    1.914994   -2.843082
  24 H   1.0000    0     1.008   -0.936165    5.344968   -1.304257
  25 S  16.0000    0    32.060    5.580654   -0.073327    0.175720
  26 O   8.0000    0    15.999    6.831320    0.855934    2.406933
  27 O   8.0000    0    15.999    6.243300    1.037271   -2.235586
  28 C   6.0000    0    12.011    6.363995   -3.299919   -0.052994
  29 H   1.0000    0     1.008    8.385227   -3.488387   -0.300374
  30 H   1.0000    0     1.008    5.801340   -4.260994    1.658163
  31 H   1.0000    0     1.008    5.419219   -4.140195   -1.659399

      -----------------------------------------------------------      
     |                   =====================                   |     
     |                           x T B                           |     
     |                   =====================                   |     
     |                         S. Grimme                         |     
     |          Mulliken Center for Theoretical Chemistry        |     
     |                    University of Bonn                     |     
      -----------------------------------------------------------      

   * xtb version 6.7.1 (edcfbbe) compiled by 'albert@albert-system' on 2024-07-22

   xtb is free software: you can redistribute it and/or modify it under
   the terms of the GNU Lesser General Public License as published by
   the Free Software Foundation, either version 3 of the License, or
   (at your option) any later version.
   
   xtb is distributed in the hope that it will be useful,
   but WITHOUT ANY WARRANTY; without even the implied warranty of
   MERCHANTABILITY or FITNESS FOR A PARTICULAR PURPOSE.  See the
   GNU Lesser General Public License for more details.
   
   Cite this work as:
   * C. Bannwarth, E. Caldeweyher, S. Ehlert, A. Hansen, P. Pracht,
     J. Seibert, S. Spicher, S. Grimme, WIREs Comput. Mol. Sci., 2020, 11,
     e01493. DOI: 10.1002/wcms.1493
   
   for GFN2-xTB:
   * C. Bannwarth, S. Ehlert and S. Grimme., J. Chem. Theory Comput., 2019,
     15, 1652-1671. DOI: 10.1021/acs.jctc.8b01176
   for GFN1-xTB:
   * S. Grimme, C. Bannwarth, P. Shushkov, J. Chem. Theory Comput., 2017,
     13, 1989-2009. DOI: 10.1021/acs.jctc.7b00118
   for GFN0-xTB:
   * P. Pracht, E. Caldeweyher, S. Ehlert, S. Grimme, ChemRxiv, 2019, preprint.
     DOI: 10.26434/chemrxiv.8326202.v1
   for GFN-FF:
   * S. Spicher and S. Grimme, Angew. Chem. Int. Ed., 2020, 59, 15665-15673.
     DOI: 10.1002/anie.202004239
   
   for ALPB and GBSA implicit solvation:
   * S. Ehlert, M. Stahn, S. Spicher, S. Grimme, J. Chem. Theory Comput.,
     2021, 17, 4250-4261. DOI: 10.1021/acs.jctc.1c00471
   
   for ddCOSMO and CPCM-X implicit solvation:
   * M. Stahn, S. Ehlert, S. Grimme, J. Phys. Chem. A,
     2023, XX, XXXX-XXXX. DOI: 10.1021/acs.jpca.3c04382
   
   for DFT-D4:
   * E. Caldeweyher, C. Bannwarth and S. Grimme, J. Chem. Phys., 2017,
     147, 034112. DOI: 10.1063/1.4993215
   * E. Caldeweyher, S. Ehlert, A. Hansen, H. Neugebauer, S. Spicher,
     C. Bannwarth and S. Grimme, J. Chem. Phys., 2019, 150, 154122.
     DOI: 10.1063/1.5090222
   * E. Caldeweyher, J.-M. Mewes, S. Ehlert and S. Grimme, Phys. Chem. Chem. Phys.
     2020, 22, 8499-8512. DOI: 10.1039/D0CP00502A
   
   for sTDA-xTB:
   * S. Grimme and C. Bannwarth, J. Chem. Phys., 2016, 145, 054103.
     DOI: 10.1063/1.4959605
   
   in the mass-spec context:
   * V. Asgeirsson, C. Bauer and S. Grimme, Chem. Sci., 2017, 8, 4879.
     DOI: 10.1039/c7sc00601b
   * J. Koopman and S. Grimme, ACS Omega 2019, 4, 12, 15120-15133.
     DOI: 10.1021/acsomega.9b02011
   
   for metadynamics refer to:
   * S. Grimme, J. Chem. Theory Comput., 2019, 155, 2847-2862
     DOI: 10.1021/acs.jctc.9b00143
   
   for SPH calculations refer to:
   * S. Spicher and S. Grimme, J. Chem. Theory Comput., 2021, 17, 1701-1714
     DOI: 10.1021/acs.jctc.0c01306
   
   for ONIOM refer to:
   * C. Plett, A. Katbashev, S. Ehlert, S. Grimme, M. Bursch,
     Phys. Chem. Chem. Phys., 2023, 25, 17860-17868. DOI: 10.1039/D3CP02178E
   
   for DIPRO refer to:
   * J. Kohn, N. Gildemeister, S. Grimme, D. Fazzi, A. Hansen,
     J. Chem. Phys., 2023, just accepted.
   
   for PTB refer to:
   * S. Grimme, M. Mueller, A. Hansen, J. Chem. Phys., 2023, 158, 124111.
     DOI: 10.1063/5.0137838
   
   with help from (in alphabetical order)
   P. Atkinson, C. Bannwarth, F. Bohle, G. Brandenburg, E. Caldeweyher
   M. Checinski, S. Dohm, S. Ehlert, S. Ehrlich, I. Gerasimov, C. Hölzer
   A. Katbashev, J. Kohn, J. Koopman, C. Lavigne, S. Lehtola, F. März, M. Müller,
   F. Musil, H. Neugebauer, J. Pisarek, C. Plett, P. Pracht, F. Pultar,
   J. Seibert, P. Shushkov, S. Spicher, M. Stahn, M. Steiner, T. Strunk,
   J. Stückrath, T. Rose, and J. Unsleber
   
 * started run on 2025/10/27 at 17:15:41.312     
   ID    Z sym.   atoms
    1    7 N      1, 19
    2    6 C      2-8, 29
    3    1 H      9-18, 21-25, 30-32
    4    8 O      20, 27, 28
    5   16 S      26

           -------------------------------------------------
          |                Calculation Setup                |
           -------------------------------------------------

          program call               : /users/hbxr153/bin/orca_6_1_0/otool_xtb /scratch/hbxr153/2000223/aMBH_XTB.xyz --grad -c 0 -u 0 -P 16 --namespace /scratch/hbxr153/2000223/aMBH --input /scratch/hbxr153/2000223/aMBH_XTB.input.tmp --alpb TOLUENE --acc 0.200000
          hostname                   : node048.aire.lee.alces.network
          calculation namespace      : /scratch/hbxr153/2000223/aMBH
          coordinate file            : /scratch/hbxr153/2000223/aMBH_XTB.xyz
          omp threads                :                    16


           -------------------------------------------------
          |                 G F N 2 - x T B                 |
           -------------------------------------------------

        Reference                      10.1021/acs.jctc.8b01176
      * Hamiltonian:
        H0-scaling (s, p, d)           1.850000    2.230000    2.230000
        zeta-weighting                 0.500000
      * Dispersion:
        s8                             2.700000
        a1                             0.520000
        a2                             5.000000
        s9                             5.000000
      * Repulsion:
        kExp                           1.500000    1.000000
        rExp                           1.000000
      * Coulomb:
        alpha                          2.000000
        third order                    shell-resolved
        anisotropic                    true
        a3                             3.000000
        a5                             4.000000
        cn-shift                       1.200000
        cn-exp                         4.000000
        max-rad                        5.000000

      * Solvation model:               ALPB
        Solvent                        TOLUENE
        Parameter file                 internal GFN2-xTB/ALPB
        Dielectric constant                7.0000E+00
        Reference state                gsolv [1 M gas/solution]
        Free energy shift                  2.2081E-03 Eh       1.3856E+00 kcal/mol
        Temperature                        2.9815E+02 K
        Density                            8.6700E-01 kg/L
        Solvent mass                       7.8110E+01 g/mol
        Interaction kernel             P16
        Born radius scaling (c1)           1.7172E+00
        Born radii integrator          GBOBC
        Born offset                        0.0000E+00 a0       0.0000E+00 AA
        H-bond correction              false
        Ion screening                  false
        Surface tension                    1.0000E-05 Eh       1.5569E+01 dyn/cm
        Grid points                               230 per atom

          ...................................................
          :                      SETUP                      :
          :.................................................:
          :  # basis functions                  80          :
          :  # atomic orbitals                  79          :
          :  # shells                           47          :
          :  # electrons                        84          :
          :  max. iterations                   250          :
          :  Hamiltonian                  GFN2-xTB          :
          :  restarted?                      false          :
          :  GBSA solvation                   true          :
          :  PC potential                    false          :
          :  electronic temp.          300.0000000     K    :
          :  accuracy                    0.2000000          :
          :  -> integral cutoff          0.3198970E+02      :
          :  -> integral neglect         0.2000000E-08      :
          :  -> SCF convergence          0.2000000E-06 Eh   :
          :  -> wf. convergence          0.2000000E-04 e    :
          :  Broyden damping             0.4000000          :
          :  net charge                          0          :
          :  unpaired electrons                  0          :
          ...................................................

 iter      E             dE          RMSdq      gap      omega  full diag
   1    -47.8194522 -0.478195E+02  0.491E+00    3.21       0.0  T
   2    -47.9890821 -0.169630E+00  0.289E+00    2.87       1.0  T
   3    -47.9935624 -0.448026E-02  0.142E+00    3.03       1.0  T
   4    -47.9950324 -0.147002E-02  0.331E-01    2.67       1.0  T
   5    -47.9965628 -0.153040E-02  0.178E-01    2.87       1.0  T
   6    -47.9967012 -0.138403E-03  0.932E-02    2.82       1.0  T
   7    -47.9967389 -0.376694E-04  0.341E-02    2.84       1.0  T
   8    -47.9967426 -0.370909E-05  0.151E-02    2.84       1.2  T
   9    -47.9967435 -0.961994E-06  0.460E-03    2.83       3.8  T
  10    -47.9967436 -0.114216E-06  0.230E-03    2.83       7.7  T
  11    -47.9967437 -0.194267E-07  0.912E-04    2.83      19.4  T
  12    -47.9967437 -0.220759E-08  0.225E-04    2.83      78.7  T
  13    -47.9967437 -0.109743E-09  0.643E-05    2.83     275.0  T
  14    -47.9967437 -0.116387E-10  0.261E-05    2.83     677.4  T

   *** convergence criteria satisfied after 14 iterations ***

         #    Occupation            Energy/Eh            Energy/eV
      -------------------------------------------------------------
         1        2.0000           -0.7307441             -19.8846
       ...           ...                  ...                  ...
        36        2.0000           -0.4212195             -11.4620
        37        2.0000           -0.4124291             -11.2228
        38        2.0000           -0.3991286             -10.8608
        39        2.0000           -0.3954420             -10.7605
        40        2.0000           -0.3831920             -10.4272
        41        2.0000           -0.3548374              -9.6556
        42        2.0000           -0.3353125              -9.1243 (HOMO)
        43                         -0.2311531              -6.2900 (LUMO)
        44                         -0.1382977              -3.7633
        45                         -0.0688868              -1.8745
        46                         -0.0548862              -1.4935
        47                         -0.0434827              -1.1832
       ...                                ...                  ...
        79                          1.2274168              33.3997
      -------------------------------------------------------------
                  HL-Gap            0.1041594 Eh            2.8343 eV
             Fermi-level           -0.2832328 Eh           -7.7072 eV

 SCC (total)                   0 d,  0 h,  0 min,  0.064 sec
 SCC setup                      ...        0 min,  0.001 sec (  1.856%)
 Dispersion                     ...        0 min,  0.001 sec (  1.243%)
 classical contributions        ...        0 min,  0.000 sec (  0.561%)
 integral evaluation            ...        0 min,  0.007 sec ( 11.149%)
 iterations                     ...        0 min,  0.050 sec ( 78.508%)
 molecular gradient             ...        0 min,  0.004 sec (  5.977%)
 printout                       ...        0 min,  0.000 sec (  0.625%)

         :::::::::::::::::::::::::::::::::::::::::::::::::::::
         ::                     SUMMARY                     ::
         :::::::::::::::::::::::::::::::::::::::::::::::::::::
         :: total energy             -47.495733024949 Eh    ::
         :: total w/o Gsasa/hb       -47.477781947456 Eh    ::
         :: gradient norm              0.083047934944 Eh/a0 ::
         :: HOMO-LUMO gap              2.834322242875 eV    ::
         ::.................................................::
         :: SCC energy               -47.996458212020 Eh    ::
         :: -> isotropic ES            0.179436855554 Eh    ::
         :: -> anisotropic ES         -0.018108170898 Eh    ::
         :: -> anisotropic XC          0.018726214137 Eh    ::
         :: -> dispersion             -0.028670879626 Eh    ::
         :: -> Gsolv                  -0.050415520351 Eh    ::
         ::    -> Gelec               -0.032464442859 Eh    ::
         ::    -> Gsasa               -0.020159220631 Eh    ::
         ::    -> Ghb                  0.000000000000 Eh    ::
         ::    -> Gshift               0.002208143139 Eh    ::
         :: repulsion energy           0.500725187071 Eh    ::
         :: add. restraining           0.000000000000 Eh    ::
         :: total charge               0.000000000000 e     ::
         :::::::::::::::::::::::::::::::::::::::::::::::::::::


Property printout bound to 'properties.out'

           -------------------------------------------------
          | TOTAL ENERGY              -47.495733024949 Eh   |
          | GRADIENT NORM               0.083047934944 Eh/α |
          | HOMO-LUMO GAP               2.834322242875 eV   |
           -------------------------------------------------

------------------------------------------------------------------------
 * finished run on 2025/10/27 at 17:15:41.439     
------------------------------------------------------------------------
 total:
 * wall-time:     0 d,  0 h,  0 min,  0.126 sec
 *  cpu-time:     0 d,  0 h,  0 min,  1.374 sec
 * ratio c/w:    10.907 speedup
 SCF:
 * wall-time:     0 d,  0 h,  0 min,  0.065 sec
 *  cpu-time:     0 d,  0 h,  0 min,  0.800 sec
 * ratio c/w:    12.387 speedup


-------------------------   --------------------
FINAL SINGLE POINT ENERGY       -47.495733024950
-------------------------   --------------------


-------------
DIPOLE MOMENT
-------------
                                X             Y             Z
Total Dipole Moment    :     -6.20600      -4.41500      -0.45300
                        -----------------------------------------
Magnitude (a.u.)       :      7.62967
Magnitude (Debye)      :     19.39308


------------------
CARTESIAN GRADIENT
------------------

   1   N   :    0.000664819   -0.001429956    0.002150932
   2   C   :    0.017458500    0.015243932    0.013970092
   3   C   :   -0.002144587   -0.007811721    0.005703751
   4   C   :    0.000463035    0.014102428   -0.001708859
   5   C   :   -0.001467544   -0.000359297   -0.026947870
   6   C   :   -0.016129857   -0.006630962    0.016321134
   7   C   :    0.010077588   -0.018247534   -0.013440804
   8   C   :   -0.012429913    0.021084205   -0.014825532
   9   H   :    0.001274438   -0.005764421   -0.005495367
  10   H   :   -0.004087978    0.003328906   -0.002735164
  11   H   :   -0.002473036    0.006738880    0.001033662
  12   H   :   -0.000830228   -0.001791469   -0.002483718
  13   H   :    0.003102268   -0.003575243   -0.002816176
  14   H   :   -0.001363485    0.002935991   -0.003708970
  15   H   :   -0.002305754    0.003792249   -0.002479379
  16   H   :   -0.004455909   -0.001044934    0.005235226
  17   H   :   -0.003243351   -0.002399435    0.005236650
  18   H   :    0.003710549   -0.006344806   -0.002753697
  19   N   :    0.022533818   -0.002026476    0.011839407
  20   O   :    0.000101401   -0.002651830   -0.004001258
  21   H   :    0.004143790   -0.000119535    0.001667639
  22   H   :    0.003080896    0.002590916    0.002573389
  23   H   :    0.003738517    0.002336542    0.001544120
  24   H   :   -0.004855080   -0.004149376    0.002996277
  25   H   :   -0.005855418   -0.006129891    0.005968377
  26   S   :    0.012134381   -0.012400757    0.005390803
  27   O   :   -0.006419621   -0.006236802   -0.010213156
  28   O   :   -0.007640368   -0.008733767    0.011042963
  29   C   :   -0.008181617    0.030932612    0.001940126
  30   H   :   -0.001882726   -0.002307969   -0.000042803
  31   H   :    0.001346819   -0.001002222   -0.002933567
  32   H   :    0.001935654   -0.001928257    0.001971772

Difference to translation invariance:
           :    0.0000000000    0.0000000000    0.0000000000

Difference to rotation invariance:
           :   -0.0001634246   -0.0000890170   -0.0000700404

Norm of the Cartesian gradient     ...    0.0830479349
RMS gradient                       ...    0.0084760444
MAX gradient                       ...    0.0309326124
      -----------------------------------------------------------      
     |                   =====================                   |     
     |                           x T B                           |     
     |                   =====================                   |     
     |                         S. Grimme                         |     
     |          Mulliken Center for Theoretical Chemistry        |     
     |                    University of Bonn                     |     
      -----------------------------------------------------------      

   * xtb version 6.7.1 (edcfbbe) compiled by 'albert@albert-system' on 2024-07-22

   xtb is free software: you can redistribute it and/or modify it under
   the terms of the GNU Lesser General Public License as published by
   the Free Software Foundation, either version 3 of the License, or
   (at your option) any later version.
   
   xtb is distributed in the hope that it will be useful,
   but WITHOUT ANY WARRANTY; without even the implied warranty of
   MERCHANTABILITY or FITNESS FOR A PARTICULAR PURPOSE.  See the
   GNU Lesser General Public License for more details.
   
   Cite this work as:
   * C. Bannwarth, E. Caldeweyher, S. Ehlert, A. Hansen, P. Pracht,
     J. Seibert, S. Spicher, S. Grimme, WIREs Comput. Mol. Sci., 2020, 11,
     e01493. DOI: 10.1002/wcms.1493
   
   for GFN2-xTB:
   * C. Bannwarth, S. Ehlert and S. Grimme., J. Chem. Theory Comput., 2019,
     15, 1652-1671. DOI: 10.1021/acs.jctc.8b01176
   for GFN1-xTB:
   * S. Grimme, C. Bannwarth, P. Shushkov, J. Chem. Theory Comput., 2017,
     13, 1989-2009. DOI: 10.1021/acs.jctc.7b00118
   for GFN0-xTB:
   * P. Pracht, E. Caldeweyher, S. Ehlert, S. Grimme, ChemRxiv, 2019, preprint.
     DOI: 10.26434/chemrxiv.8326202.v1
   for GFN-FF:
   * S. Spicher and S. Grimme, Angew. Chem. Int. Ed., 2020, 59, 15665-15673.
     DOI: 10.1002/anie.202004239
   
   for ALPB and GBSA implicit solvation:
   * S. Ehlert, M. Stahn, S. Spicher, S. Grimme, J. Chem. Theory Comput.,
     2021, 17, 4250-4261. DOI: 10.1021/acs.jctc.1c00471
   
   for ddCOSMO and CPCM-X implicit solvation:
   * M. Stahn, S. Ehlert, S. Grimme, J. Phys. Chem. A,
     2023, XX, XXXX-XXXX. DOI: 10.1021/acs.jpca.3c04382
   
   for DFT-D4:
   * E. Caldeweyher, C. Bannwarth and S. Grimme, J. Chem. Phys., 2017,
     147, 034112. DOI: 10.1063/1.4993215
   * E. Caldeweyher, S. Ehlert, A. Hansen, H. Neugebauer, S. Spicher,
     C. Bannwarth and S. Grimme, J. Chem. Phys., 2019, 150, 154122.
     DOI: 10.1063/1.5090222
   * E. Caldeweyher, J.-M. Mewes, S. Ehlert and S. Grimme, Phys. Chem. Chem. Phys.
     2020, 22, 8499-8512. DOI: 10.1039/D0CP00502A
   
   for sTDA-xTB:
   * S. Grimme and C. Bannwarth, J. Chem. Phys., 2016, 145, 054103.
     DOI: 10.1063/1.4959605
   
   in the mass-spec context:
   * V. Asgeirsson, C. Bauer and S. Grimme, Chem. Sci., 2017, 8, 4879.
     DOI: 10.1039/c7sc00601b
   * J. Koopman and S. Grimme, ACS Omega 2019, 4, 12, 15120-15133.
     DOI: 10.1021/acsomega.9b02011
   
   for metadynamics refer to:
   * S. Grimme, J. Chem. Theory Comput., 2019, 155, 2847-2862
     DOI: 10.1021/acs.jctc.9b00143
   
   for SPH calculations refer to:
   * S. Spicher and S. Grimme, J. Chem. Theory Comput., 2021, 17, 1701-1714
     DOI: 10.1021/acs.jctc.0c01306
   
   for ONIOM refer to:
   * C. Plett, A. Katbashev, S. Ehlert, S. Grimme, M. Bursch,
     Phys. Chem. Chem. Phys., 2023, 25, 17860-17868. DOI: 10.1039/D3CP02178E
   
   for DIPRO refer to:
   * J. Kohn, N. Gildemeister, S. Grimme, D. Fazzi, A. Hansen,
     J. Chem. Phys., 2023, just accepted.
   
   for PTB refer to:
   * S. Grimme, M. Mueller, A. Hansen, J. Chem. Phys., 2023, 158, 124111.
     DOI: 10.1063/5.0137838
   
   with help from (in alphabetical order)
   P. Atkinson, C. Bannwarth, F. Bohle, G. Brandenburg, E. Caldeweyher
   M. Checinski, S. Dohm, S. Ehlert, S. Ehrlich, I. Gerasimov, C. Hölzer
   A. Katbashev, J. Kohn, J. Koopman, C. Lavigne, S. Lehtola, F. März, M. Müller,
   F. Musil, H. Neugebauer, J. Pisarek, C. Plett, P. Pracht, F. Pultar,
   J. Seibert, P. Shushkov, S. Spicher, M. Stahn, M. Steiner, T. Strunk,
   J. Stückrath, T. Rose, and J. Unsleber
   
 * started run on 2025/10/27 at 17:15:41.462     
   ID    Z sym.   atoms
    1    7 N      1, 19
    2    6 C      2-8, 29
    3    1 H      9-18, 21-25, 30-32
    4    8 O      20, 27, 28
    5   16 S      26

           -------------------------------------------------
          |                Calculation Setup                |
           -------------------------------------------------

          program call               : /users/hbxr153/bin/orca_6_1_0/otool_xtb /scratch/hbxr153/2000223/aMBH_XTB.xyz --hess -c 0 -u 0 -P 16 --namespace /scratch/hbxr153/2000223/aMBH --input /scratch/hbxr153/2000223/aMBH_XTB.input.tmp --alpb TOLUENE --acc 0.200000
          hostname                   : node048.aire.lee.alces.network
          calculation namespace      : /scratch/hbxr153/2000223/aMBH
          coordinate file            : /scratch/hbxr153/2000223/aMBH_XTB.xyz
          omp threads                :                    16


           -------------------------------------------------
          |                 G F N 2 - x T B                 |
           -------------------------------------------------

        Reference                      10.1021/acs.jctc.8b01176
      * Hamiltonian:
        H0-scaling (s, p, d)           1.850000    2.230000    2.230000
        zeta-weighting                 0.500000
      * Dispersion:
        s8                             2.700000
        a1                             0.520000
        a2                             5.000000
        s9                             5.000000
      * Repulsion:
        kExp                           1.500000    1.000000
        rExp                           1.000000
      * Coulomb:
        alpha                          2.000000
        third order                    shell-resolved
        anisotropic                    true
        a3                             3.000000
        a5                             4.000000
        cn-shift                       1.200000
        cn-exp                         4.000000
        max-rad                        5.000000

      * Solvation model:               ALPB
        Solvent                        TOLUENE
        Parameter file                 internal GFN2-xTB/ALPB
        Dielectric constant                7.0000E+00
        Reference state                gsolv [1 M gas/solution]
        Free energy shift                  2.2081E-03 Eh       1.3856E+00 kcal/mol
        Temperature                        2.9815E+02 K
        Density                            8.6700E-01 kg/L
        Solvent mass                       7.8110E+01 g/mol
        Interaction kernel             P16
        Born radius scaling (c1)           1.7172E+00
        Born radii integrator          GBOBC
        Born offset                        0.0000E+00 a0       0.0000E+00 AA
        H-bond correction              false
        Ion screening                  false
        Surface tension                    1.0000E-05 Eh       1.5569E+01 dyn/cm
        Grid points                               230 per atom
q/qsh data taken from xtbrestart
CAMM data taken from xtbrestart

          ...................................................
          :                      SETUP                      :
          :.................................................:
          :  # basis functions                  80          :
          :  # atomic orbitals                  79          :
          :  # shells                           47          :
          :  # electrons                        84          :
          :  max. iterations                   250          :
          :  Hamiltonian                  GFN2-xTB          :
          :  restarted?                       true          :
          :  GBSA solvation                   true          :
          :  PC potential                    false          :
          :  electronic temp.          300.0000000     K    :
          :  accuracy                    0.2000000          :
          :  -> integral cutoff          0.3198970E+02      :
          :  -> integral neglect         0.2000000E-08      :
          :  -> SCF convergence          0.2000000E-06 Eh   :
          :  -> wf. convergence          0.2000000E-04 e    :
          :  Broyden damping             0.4000000          :
          :  net charge                          0          :
          :  unpaired electrons                  0          :
          ...................................................

 iter      E             dE          RMSdq      gap      omega  full diag
   1    -47.9967437 -0.479967E+02  0.681E-06    2.83       0.0  T
   2    -47.9967437 -0.710543E-13  0.398E-06    2.83    4442.4  T
   3    -47.9967437 -0.426326E-13  0.201E-06    2.83    8810.7  T

   *** convergence criteria satisfied after 3 iterations ***

         #    Occupation            Energy/Eh            Energy/eV
      -------------------------------------------------------------
         1        2.0000           -0.7307441             -19.8846
       ...           ...                  ...                  ...
        36        2.0000           -0.4212196             -11.4620
        37        2.0000           -0.4124291             -11.2228
        38        2.0000           -0.3991286             -10.8608
        39        2.0000           -0.3954420             -10.7605
        40        2.0000           -0.3831921             -10.4272
        41        2.0000           -0.3548375              -9.6556
        42        2.0000           -0.3353126              -9.1243 (HOMO)
        43                         -0.2311531              -6.2900 (LUMO)
        44                         -0.1382978              -3.7633
        45                         -0.0688869              -1.8745
        46                         -0.0548862              -1.4935
        47                         -0.0434827              -1.1832
       ...                                ...                  ...
        79                          1.2274169              33.3997
      -------------------------------------------------------------
                  HL-Gap            0.1041595 Eh            2.8343 eV
             Fermi-level           -0.2832329 Eh           -7.7072 eV

 SCC (total)                   0 d,  0 h,  0 min,  0.039 sec
 SCC setup                      ...        0 min,  0.001 sec (  2.323%)
 Dispersion                     ...        0 min,  0.001 sec (  1.785%)
 classical contributions        ...        0 min,  0.000 sec (  0.544%)
 integral evaluation            ...        0 min,  0.020 sec ( 51.390%)
 iterations                     ...        0 min,  0.011 sec ( 27.294%)
 molecular gradient             ...        0 min,  0.006 sec ( 15.620%)
 printout                       ...        0 min,  0.000 sec (  0.895%)

         :::::::::::::::::::::::::::::::::::::::::::::::::::::
         ::                     SUMMARY                     ::
         :::::::::::::::::::::::::::::::::::::::::::::::::::::
         :: total energy             -47.495733024951 Eh    ::
         :: total w/o Gsasa/hb       -47.477781947458 Eh    ::
         :: gradient norm              0.083048002396 Eh/a0 ::
         :: HOMO-LUMO gap              2.834325272013 eV    ::
         ::.................................................::
         :: SCC energy               -47.996458212022 Eh    ::
         :: -> isotropic ES            0.179437134532 Eh    ::
         :: -> anisotropic ES         -0.018108138184 Eh    ::
         :: -> anisotropic XC          0.018726243171 Eh    ::
         :: -> dispersion             -0.028670879612 Eh    ::
         :: -> Gsolv                  -0.050415537185 Eh    ::
         ::    -> Gelec               -0.032464459692 Eh    ::
         ::    -> Gsasa               -0.020159220631 Eh    ::
         ::    -> Ghb                  0.000000000000 Eh    ::
         ::    -> Gshift               0.002208143139 Eh    ::
         :: repulsion energy           0.500725187071 Eh    ::
         :: add. restraining           0.000000000000 Eh    ::
         :: total charge              -0.000000000000 e     ::
         :::::::::::::::::::::::::::::::::::::::::::::::::::::

           ------------------------------------------------- 
          |                Numerical Hessian                |
           ------------------------------------------------- 
step length          :   0.00500
SCC accuracy         :   0.30000
Hessian scale factor :   1.00000
frozen atoms in %    :   0.00000    0
RMS gradient         :   0.08305 !! INCOMPLETELY OPTIMIZED GEOMETRY !!
estimated CPU  time      0.36 min
estimated wall time      0.03 min

writing file <hessian>.

 projected vibrational frequencies (cm⁻¹)
eigval :       -0.00    -0.00    -0.00     0.00     0.00     0.00
eigval :    -1367.22  -178.91  -138.83   -96.37   -77.65   -12.31
eigval :       59.74    81.21   102.85   136.08   141.70   171.71
eigval :      194.81   212.95   236.64   278.77   293.63   313.38
eigval :      334.51   359.14   392.26   421.75   426.61   461.18
eigval :      472.27   478.75   545.52   634.65   681.09   773.72
eigval :      799.14   816.25   830.51   840.41   858.30   892.39
eigval :      905.88   920.96   938.88   951.77   992.39  1030.72
eigval :     1040.79  1054.94  1060.72  1072.92  1115.55  1140.51
eigval :     1176.67  1189.36  1198.31  1218.01  1230.38  1269.17
eigval :     1295.93  1307.34  1313.83  1360.19  1361.92  1365.79
eigval :     1380.56  1390.55  1411.86  1426.80  1435.23  1439.49
eigval :     1440.87  1448.21  1449.01  1459.29  1468.97  1593.23
eigval :     1645.10  2955.88  3018.43  3050.13  3068.16  3071.35
eigval :     3088.22  3097.99  3110.03  3111.52  3116.31  3118.68
eigval :     3127.16  3131.84  3139.14  3156.68  3171.39  3178.94

Property printout bound to 'properties.out'
Molecule has no symmetry elements
It seems to be the C1 point group
imag cut-off (cm-1) :    5.00
 found            6  significant imaginary frequencies
 writing imag mode distorted coords to xtbhess.xyz
 for further optimization.

           -------------------------------------------------
          | TOTAL ENERGY              -47.495733024610 Eh   |
          | TOTAL ENTHALPY            -47.223706204875 Eh   |
          | TOTAL FREE ENERGY         -47.281123451902 Eh   |
          | GRADIENT NORM               0.083048014790 Eh/α |
          | HOMO-LUMO GAP               2.834324431162 eV   |
           -------------------------------------------------
########################################################################
[WARNING] Runtime exception occurred
-1- hessian_numhess: Hessian on incompletely optimized geometry!
########################################################################

------------------------------------------------------------------------
 * finished run on 2025/10/27 at 17:15:41.937     
------------------------------------------------------------------------
 total:
 * wall-time:     0 d,  0 h,  0 min,  0.475 sec
 *  cpu-time:     0 d,  0 h,  0 min,  5.882 sec
 * ratio c/w:    12.385 speedup
 SCF:
 * wall-time:     0 d,  0 h,  0 min,  0.040 sec
 *  cpu-time:     0 d,  0 h,  0 min,  0.314 sec
 * ratio c/w:     7.905 speedup
 analytical hessian:
 * wall-time:     0 d,  0 h,  0 min,  0.387 sec
 *  cpu-time:     0 d,  0 h,  0 min,  5.087 sec
 * ratio c/w:    13.157 speedup


-------------------------   --------------------
FINAL SINGLE POINT ENERGY       -47.495733024950
-------------------------   --------------------


-------------
DIPOLE MOMENT
-------------
                                X             Y             Z
Total Dipole Moment    :     -6.20600      -4.41500      -0.45200
                        -----------------------------------------
Magnitude (a.u.)       :      7.62961
Magnitude (Debye)      :     19.39293


-----------------------
VIBRATIONAL FREQUENCIES
-----------------------

Scaling factor for frequencies =  1.000000000  (already applied!)

     0:       0.00 cm**-1
     1:       0.00 cm**-1
     2:       0.00 cm**-1
     3:       0.00 cm**-1
     4:       0.00 cm**-1
     5:       0.00 cm**-1
     6:   -1367.18 cm**-1  ***imaginary mode***
     7:    -178.91 cm**-1  ***imaginary mode***
     8:    -138.82 cm**-1  ***imaginary mode***
     9:     -96.37 cm**-1  ***imaginary mode***
    10:     -77.65 cm**-1  ***imaginary mode***
    11:     -12.31 cm**-1  ***imaginary mode***
    12:      59.74 cm**-1
    13:      81.21 cm**-1
    14:     102.84 cm**-1
    15:     136.08 cm**-1
    16:     141.70 cm**-1
    17:     171.71 cm**-1
    18:     194.81 cm**-1
    19:     212.95 cm**-1
    20:     236.64 cm**-1
    21:     278.77 cm**-1
    22:     293.63 cm**-1
    23:     313.38 cm**-1
    24:     334.51 cm**-1
    25:     359.13 cm**-1
    26:     392.26 cm**-1
    27:     421.75 cm**-1
    28:     426.60 cm**-1
    29:     461.18 cm**-1
    30:     472.28 cm**-1
    31:     478.76 cm**-1
    32:     545.52 cm**-1
    33:     634.64 cm**-1
    34:     681.09 cm**-1
    35:     773.73 cm**-1
    36:     799.13 cm**-1
    37:     816.23 cm**-1
    38:     830.50 cm**-1
    39:     840.40 cm**-1
    40:     858.29 cm**-1
    41:     892.37 cm**-1
    42:     905.87 cm**-1
    43:     920.94 cm**-1
    44:     938.86 cm**-1
    45:     951.76 cm**-1
    46:     992.36 cm**-1
    47:    1030.70 cm**-1
    48:    1040.77 cm**-1
    49:    1054.93 cm**-1
    50:    1060.69 cm**-1
    51:    1072.89 cm**-1
    52:    1115.57 cm**-1
    53:    1140.48 cm**-1
    54:    1176.65 cm**-1
    55:    1189.33 cm**-1
    56:    1198.29 cm**-1
    57:    1218.06 cm**-1
    58:    1230.36 cm**-1
    59:    1269.14 cm**-1
    60:    1295.90 cm**-1
    61:    1307.31 cm**-1
    62:    1313.80 cm**-1
    63:    1360.15 cm**-1
    64:    1361.89 cm**-1
    65:    1365.76 cm**-1
    66:    1380.52 cm**-1
    67:    1390.51 cm**-1
    68:    1411.82 cm**-1
    69:    1426.76 cm**-1
    70:    1435.19 cm**-1
    71:    1439.45 cm**-1
    72:    1440.83 cm**-1
    73:    1448.17 cm**-1
    74:    1448.97 cm**-1
    75:    1459.25 cm**-1
    76:    1468.93 cm**-1
    77:    1593.18 cm**-1
    78:    1645.10 cm**-1
    79:    2955.80 cm**-1
    80:    3018.35 cm**-1
    81:    3050.04 cm**-1
    82:    3068.07 cm**-1
    83:    3071.26 cm**-1
    84:    3088.14 cm**-1
    85:    3097.91 cm**-1
    86:    3109.94 cm**-1
    87:    3111.44 cm**-1
    88:    3116.23 cm**-1
    89:    3118.59 cm**-1
    90:    3127.08 cm**-1
    91:    3131.75 cm**-1
    92:    3139.05 cm**-1
    93:    3156.59 cm**-1
    94:    3171.30 cm**-1
    95:    3178.85 cm**-1


------------
NORMAL MODES
------------

These modes are the Cartesian displacements weighted by the diagonal matrix
M(i,i)=1/sqrt(m[i]) where m[i] is the mass of the displaced atom
Thus, these vectors are normalized but *not* orthogonal

                  0          1          2          3          4          5    
      0       0.000000   0.000000   0.000000   0.000000   0.000000   0.000000
      1       0.000000   0.000000   0.000000   0.000000   0.000000   0.000000
      2       0.000000   0.000000   0.000000   0.000000   0.000000   0.000000
      3       0.000000   0.000000   0.000000   0.000000   0.000000   0.000000
      4       0.000000   0.000000   0.000000   0.000000   0.000000   0.000000
      5       0.000000   0.000000   0.000000   0.000000   0.000000   0.000000
      6       0.000000   0.000000   0.000000   0.000000   0.000000   0.000000
      7       0.000000   0.000000   0.000000   0.000000   0.000000   0.000000
      8       0.000000   0.000000   0.000000   0.000000   0.000000   0.000000
      9       0.000000   0.000000   0.000000   0.000000   0.000000   0.000000
     10       0.000000   0.000000   0.000000   0.000000   0.000000   0.000000
     11       0.000000   0.000000   0.000000   0.000000   0.000000   0.000000
     12       0.000000   0.000000   0.000000   0.000000   0.000000   0.000000
     13       0.000000   0.000000   0.000000   0.000000   0.000000   0.000000
     14       0.000000   0.000000   0.000000   0.000000   0.000000   0.000000
     15       0.000000   0.000000   0.000000   0.000000   0.000000   0.000000
     16       0.000000   0.000000   0.000000   0.000000   0.000000   0.000000
     17       0.000000   0.000000   0.000000   0.000000   0.000000   0.000000
     18       0.000000   0.000000   0.000000   0.000000   0.000000   0.000000
     19       0.000000   0.000000   0.000000   0.000000   0.000000   0.000000
     20       0.000000   0.000000   0.000000   0.000000   0.000000   0.000000
     21       0.000000   0.000000   0.000000   0.000000   0.000000   0.000000
     22       0.000000   0.000000   0.000000   0.000000   0.000000   0.000000
     23       0.000000   0.000000   0.000000   0.000000   0.000000   0.000000
     24       0.000000   0.000000   0.000000   0.000000   0.000000   0.000000
     25       0.000000   0.000000   0.000000   0.000000   0.000000   0.000000
     26       0.000000   0.000000   0.000000   0.000000   0.000000   0.000000
     27       0.000000   0.000000   0.000000   0.000000   0.000000   0.000000
     28       0.000000   0.000000   0.000000   0.000000   0.000000   0.000000
     29       0.000000   0.000000   0.000000   0.000000   0.000000   0.000000
     30       0.000000   0.000000   0.000000   0.000000   0.000000   0.000000
     31       0.000000   0.000000   0.000000   0.000000   0.000000   0.000000
     32       0.000000   0.000000   0.000000   0.000000   0.000000   0.000000
     33       0.000000   0.000000   0.000000   0.000000   0.000000   0.000000
     34       0.000000   0.000000   0.000000   0.000000   0.000000   0.000000
     35       0.000000   0.000000   0.000000   0.000000   0.000000   0.000000
     36       0.000000   0.000000   0.000000   0.000000   0.000000   0.000000
     37       0.000000   0.000000   0.000000   0.000000   0.000000   0.000000
     38       0.000000   0.000000   0.000000   0.000000   0.000000   0.000000
     39       0.000000   0.000000   0.000000   0.000000   0.000000   0.000000
     40       0.000000   0.000000   0.000000   0.000000   0.000000   0.000000
     41       0.000000   0.000000   0.000000   0.000000   0.000000   0.000000
     42       0.000000   0.000000   0.000000   0.000000   0.000000   0.000000
     43       0.000000   0.000000   0.000000   0.000000   0.000000   0.000000
     44       0.000000   0.000000   0.000000   0.000000   0.000000   0.000000
     45       0.000000   0.000000   0.000000   0.000000   0.000000   0.000000
     46       0.000000   0.000000   0.000000   0.000000   0.000000   0.000000
     47       0.000000   0.000000   0.000000   0.000000   0.000000   0.000000
     48       0.000000   0.000000   0.000000   0.000000   0.000000   0.000000
     49       0.000000   0.000000   0.000000   0.000000   0.000000   0.000000
     50       0.000000   0.000000   0.000000   0.000000   0.000000   0.000000
     51       0.000000   0.000000   0.000000   0.000000   0.000000   0.000000
     52       0.000000   0.000000   0.000000   0.000000   0.000000   0.000000
     53       0.000000   0.000000   0.000000   0.000000   0.000000   0.000000
     54       0.000000   0.000000   0.000000   0.000000   0.000000   0.000000
     55       0.000000   0.000000   0.000000   0.000000   0.000000   0.000000
     56       0.000000   0.000000   0.000000   0.000000   0.000000   0.000000
     57       0.000000   0.000000   0.000000   0.000000   0.000000   0.000000
     58       0.000000   0.000000   0.000000   0.000000   0.000000   0.000000
     59       0.000000   0.000000   0.000000   0.000000   0.000000   0.000000
     60       0.000000   0.000000   0.000000   0.000000   0.000000   0.000000
     61       0.000000   0.000000   0.000000   0.000000   0.000000   0.000000
     62       0.000000   0.000000   0.000000   0.000000   0.000000   0.000000
     63       0.000000   0.000000   0.000000   0.000000   0.000000   0.000000
     64       0.000000   0.000000   0.000000   0.000000   0.000000   0.000000
     65       0.000000   0.000000   0.000000   0.000000   0.000000   0.000000
     66       0.000000   0.000000   0.000000   0.000000   0.000000   0.000000
     67       0.000000   0.000000   0.000000   0.000000   0.000000   0.000000
     68       0.000000   0.000000   0.000000   0.000000   0.000000   0.000000
     69       0.000000   0.000000   0.000000   0.000000   0.000000   0.000000
     70       0.000000   0.000000   0.000000   0.000000   0.000000   0.000000
     71       0.000000   0.000000   0.000000   0.000000   0.000000   0.000000
     72       0.000000   0.000000   0.000000   0.000000   0.000000   0.000000
     73       0.000000   0.000000   0.000000   0.000000   0.000000   0.000000
     74       0.000000   0.000000   0.000000   0.000000   0.000000   0.000000
     75       0.000000   0.000000   0.000000   0.000000   0.000000   0.000000
     76       0.000000   0.000000   0.000000   0.000000   0.000000   0.000000
     77       0.000000   0.000000   0.000000   0.000000   0.000000   0.000000
     78       0.000000   0.000000   0.000000   0.000000   0.000000   0.000000
     79       0.000000   0.000000   0.000000   0.000000   0.000000   0.000000
     80       0.000000   0.000000   0.000000   0.000000   0.000000   0.000000
     81       0.000000   0.000000   0.000000   0.000000   0.000000   0.000000
     82       0.000000   0.000000   0.000000   0.000000   0.000000   0.000000
     83       0.000000   0.000000   0.000000   0.000000   0.000000   0.000000
     84       0.000000   0.000000   0.000000   0.000000   0.000000   0.000000
     85       0.000000   0.000000   0.000000   0.000000   0.000000   0.000000
     86       0.000000   0.000000   0.000000   0.000000   0.000000   0.000000
     87       0.000000   0.000000   0.000000   0.000000   0.000000   0.000000
     88       0.000000   0.000000   0.000000   0.000000   0.000000   0.000000
     89       0.000000   0.000000   0.000000   0.000000   0.000000   0.000000
     90       0.000000   0.000000   0.000000   0.000000   0.000000   0.000000
     91       0.000000   0.000000   0.000000   0.000000   0.000000   0.000000
     92       0.000000   0.000000   0.000000   0.000000   0.000000   0.000000
     93       0.000000   0.000000   0.000000   0.000000   0.000000   0.000000
     94       0.000000   0.000000   0.000000   0.000000   0.000000   0.000000
     95       0.000000   0.000000   0.000000   0.000000   0.000000   0.000000
                  6          7          8          9         10         11    
      0      -0.009376   0.003525  -0.002221  -0.005354   0.050377   0.003970
      1      -0.005897   0.005020   0.000885   0.007310  -0.025322  -0.007566
      2      -0.004223  -0.002733  -0.007691   0.034291   0.008720   0.000954
      3       0.028778  -0.007258  -0.004172  -0.012913   0.015017   0.021469
      4       0.020774   0.022170  -0.003000   0.044882   0.044209  -0.009164
      5       0.002951   0.006033   0.000587   0.005407   0.008739  -0.041947
      6      -0.049728   0.002905  -0.000217   0.012359  -0.023225  -0.002395
      7       0.009881   0.002978  -0.001375  -0.015185   0.071299   0.013867
      8      -0.042972   0.000332   0.008471  -0.039116  -0.000472  -0.048173
      9       0.017376  -0.000668   0.001612   0.034250  -0.085214   0.005658
     10      -0.030269   0.001120  -0.000052  -0.015531   0.044632   0.017796
     11       0.004047  -0.011762   0.009962  -0.092058  -0.024145  -0.024067
     12      -0.016476  -0.009274   0.002199  -0.005963   0.012130   0.002691
     13       0.007269  -0.023412   0.000674  -0.083743   0.115278   0.020020
     14       0.000841   0.003948   0.010868  -0.015151   0.015085  -0.046355
     15      -0.000560   0.015816  -0.007179  -0.002982   0.053339   0.085713
     16      -0.000710  -0.019147  -0.004235   0.063004  -0.034178  -0.070380
     17      -0.001439  -0.001111  -0.015006   0.061673   0.008267   0.054577
     18      -0.001685   0.014214   0.000537  -0.009474   0.109830  -0.017088
     19      -0.000180   0.019470   0.004881  -0.032798  -0.026553   0.033322
     20      -0.000061  -0.020199  -0.012218   0.095575   0.050152  -0.078111
     21      -0.001299  -0.013730   0.003697  -0.007262   0.027956  -0.094970
     22      -0.001567   0.003490   0.005416  -0.036956  -0.080778   0.019341
     23       0.000154   0.011015  -0.006520  -0.010524  -0.028637   0.087567
     24      -0.001668  -0.023338  -0.007675  -0.024895  -0.025681   0.046719
     25       0.008528   0.047684  -0.006227   0.115535   0.036594  -0.035912
     26      -0.011161  -0.023185   0.000588  -0.052920  -0.011946  -0.005489
     27      -0.012328  -0.021903  -0.007816  -0.035437   0.046583   0.055822
     28      -0.009364   0.033640  -0.005953   0.070593   0.079101  -0.007392
     29      -0.001516   0.045623  -0.000208   0.084130   0.032964  -0.081961
     30       0.008732  -0.030622   0.004797  -0.040383   0.063036   0.001080
     31      -0.002782  -0.043208   0.001103  -0.094316   0.088666   0.020308
     32       0.014463   0.044195   0.009038   0.016205   0.032249  -0.045636
     33       0.885186   0.005231  -0.002020   0.012293  -0.019813  -0.016855
     34      -0.446508   0.007022  -0.003391  -0.021255   0.146430   0.025062
     35       0.071196  -0.003347   0.012208  -0.038047   0.005549  -0.046310
     36       0.004030   0.137542   0.004821  -0.066046  -0.081839   0.021366
     37       0.002130  -0.043135  -0.008633   0.099606  -0.028003  -0.092733
     38      -0.003375   0.137668   0.002059  -0.051809  -0.111011   0.041669
     39       0.002753  -0.009127  -0.016171   0.017312   0.097305   0.179145
     40       0.001830  -0.167710  -0.025952   0.178759   0.110098   0.000906
     41      -0.001319  -0.116548  -0.028306   0.150480   0.106633   0.053625
     42      -0.001756   0.445587  -0.004150   0.083112   0.136036   0.140557
     43       0.002116   0.232558  -0.000457   0.055536   0.020352   0.062614
     44       0.002432  -0.108894  -0.014343   0.119029   0.078692  -0.158346
     45      -0.005334  -0.352402   0.004855  -0.088477   0.102407  -0.155437
     46       0.004575   0.087535   0.009843  -0.068394  -0.016958   0.095326
     47       0.000017  -0.344865  -0.006038   0.004525   0.046944  -0.185410
     48       0.003675   0.055521   0.023336  -0.035916   0.067361  -0.323964
     49       0.000167   0.192729   0.038830  -0.138160  -0.003108  -0.247386
     50       0.005836   0.122898   0.019433  -0.063327   0.026619  -0.182328
     51       0.017534  -0.214803  -0.032518   0.062149  -0.108293   0.299429
     52       0.002809  -0.082785  -0.010645   0.018955  -0.109250   0.140777
     53       0.002617   0.073422   0.005667  -0.078055  -0.038722   0.048514
     54      -0.040005  -0.000376   0.001455  -0.016897   0.015552  -0.004941
     55       0.021781  -0.002101   0.002611  -0.087389   0.196368   0.018995
     56       0.013959   0.004238   0.012540  -0.002744   0.025881  -0.039676
     57      -0.005959   0.005123  -0.001646   0.046855  -0.104612   0.002226
     58       0.004487   0.003619  -0.001649   0.020777   0.001483   0.015075
     59       0.004477  -0.003031   0.002828  -0.095065  -0.030467  -0.023857
     60      -0.003336   0.106260   0.026269  -0.047613   0.106715  -0.339681
     61       0.003920  -0.087566  -0.006039  -0.028607  -0.170690   0.174286
     62      -0.001482  -0.152283  -0.043871   0.070755  -0.100874   0.457738
     63       0.001664  -0.048985   0.003175  -0.026627   0.139608  -0.053840
     64      -0.004935  -0.254596   0.009146  -0.119556  -0.085429  -0.021793
     65      -0.002458   0.366727  -0.021149   0.213446   0.058426   0.041309
     66      -0.004423  -0.075929  -0.015213   0.040278   0.148080   0.121088
     67      -0.001518   0.134332   0.017279  -0.041360  -0.191659  -0.169567
     68       0.004184  -0.022141  -0.026147   0.107633   0.028869   0.107232
     69      -0.002321  -0.007450   0.003309   0.033557  -0.035269   0.003727
     70       0.000682  -0.048990   0.001326  -0.121831   0.124750   0.022582
     71       0.005534  -0.023060   0.012441  -0.033813  -0.004055  -0.042580
     72       0.006847  -0.008752   0.007972   0.036852  -0.121772   0.018681
     73      -0.009560  -0.006401   0.002173  -0.053233   0.067103   0.030760
     74      -0.000462  -0.032029   0.020422  -0.134541  -0.043019   0.010278
     75       0.013742  -0.001520  -0.000100  -0.012783   0.008878  -0.000452
     76       0.002294  -0.001935  -0.000477   0.002996  -0.007635  -0.004030
     77       0.001899   0.001658   0.001171   0.021709   0.004826   0.012084
     78      -0.002597  -0.001714   0.014092  -0.070990   0.093317  -0.044508
[...]
     20      -0.013616   0.038141  -0.030034  -0.000326   0.000007   0.000045
     21      -0.022848   0.015556   0.032653   0.000067  -0.000069  -0.000031
     22       0.032541   0.033328   0.033788   0.000104  -0.000041  -0.000018
     23       0.049725  -0.000449  -0.025033  -0.000176   0.000022   0.000015
     24       0.009466   0.008489  -0.000096  -0.000105   0.000093  -0.000054
     25      -0.022208  -0.018157   0.002926   0.000102  -0.000067   0.000084
     26      -0.018934  -0.016526   0.000714   0.000112  -0.000028   0.000089
     27       0.001316   0.004706   0.008174  -0.000076   0.000108   0.000103
     28      -0.002906  -0.014148  -0.019090   0.000195  -0.000637  -0.000609
     29       0.003705   0.010134   0.011842  -0.000151   0.000502   0.000377
     30      -0.000184   0.000283   0.000100  -0.000539  -0.001709  -0.000477
     31      -0.002585   0.000588  -0.000938  -0.000884  -0.004613  -0.001228
     32       0.000668  -0.002027   0.001261  -0.000185  -0.000339   0.000060
     33      -0.000322  -0.000519  -0.000797   0.000337  -0.000195  -0.000530
     34       0.000121   0.000239   0.000396   0.000015   0.000178   0.000233
     35      -0.000172   0.000058   0.000199  -0.000026   0.000154  -0.000186
     36       0.165038   0.021488  -0.023954  -0.000171   0.000043   0.000027
     37      -0.478832  -0.064684   0.070190   0.000421  -0.000192  -0.000128
     38      -0.358808  -0.048238   0.049775   0.000289  -0.000152  -0.000113
     39      -0.005871  -0.002713   0.042345   0.000069   0.000070   0.000141
     40       0.017497   0.007109  -0.090960  -0.000195  -0.000227  -0.000345
     41       0.007797  -0.003777   0.070023   0.000123   0.000184   0.000250
     42       0.043943   0.024732   0.032573   0.000063   0.000261   0.000099
     43      -0.072271  -0.095311  -0.040072   0.000151  -0.000933  -0.000441
     44       0.051137   0.076827   0.024229  -0.000158   0.000664   0.000324
     45      -0.172712   0.557236  -0.370802  -0.004324   0.001050   0.001012
     46      -0.071892   0.237890  -0.154918  -0.001787   0.000519   0.000496
     47       0.160278  -0.514334   0.338193   0.003942  -0.001211  -0.001025
     48       0.258810  -0.258445  -0.514333  -0.002412   0.000596   0.000340
     49       0.107181  -0.080655  -0.174816  -0.000853   0.000230   0.000135
     50      -0.242560   0.266395   0.516361   0.002343  -0.000681  -0.000362
     51       0.092227   0.079139   0.072828   0.000215  -0.000102  -0.000043
     52      -0.496381  -0.337235  -0.265994  -0.000976   0.000208   0.000078
     53      -0.350405  -0.253426  -0.210669  -0.000798   0.000158   0.000087
     54       0.000039  -0.000004   0.000066  -0.000054  -0.000078  -0.000022
     55      -0.000021  -0.000043  -0.000024  -0.000076  -0.000260  -0.000155
     56      -0.000013  -0.000024  -0.000031   0.000029  -0.000004  -0.000035
     57       0.000028   0.000113   0.000185   0.000015   0.000020   0.000010
     58       0.000017   0.000026   0.000046  -0.000013  -0.000029  -0.000024
     59      -0.000021   0.000041   0.000060  -0.000011  -0.000012   0.000000
     60      -0.071161  -0.005032   0.047340   0.001418   0.000342   0.000116
     61      -0.007387   0.005632   0.018804   0.000508   0.000116   0.000026
     62      -0.009873  -0.004414   0.007009   0.000664   0.000208   0.000082
     63      -0.065176  -0.091417   0.041158   0.000755   0.000668   0.000140
     64      -0.020783  -0.035594   0.019679   0.000309   0.000214   0.000045
     65      -0.050044  -0.032954   0.006114   0.000276   0.000394   0.000101
     66       0.061856   0.021268  -0.059648   0.000420   0.000371   0.000094
     67       0.044521   0.010731  -0.022502   0.000178   0.000167   0.000053
     68       0.054368   0.015660  -0.040517   0.000311   0.000252   0.000050
     69       0.001355  -0.003578   0.003109  -0.000391   0.001049   0.000214
     70       0.001437  -0.003797   0.002668  -0.000179   0.001732  -0.000267
     71      -0.002594   0.006721  -0.005402   0.000368  -0.003764   0.001269
     72      -0.001675   0.000422   0.002986  -0.000090  -0.000023  -0.000083
     73      -0.000104   0.000196   0.001546  -0.000006   0.000067  -0.000197
     74       0.001535  -0.000207  -0.002305   0.000010   0.000006   0.000158
     75      -0.000009  -0.000009   0.000002   0.000116   0.000498   0.000038
     76       0.000005   0.000002   0.000005  -0.000251   0.000239   0.000263
     77       0.000005  -0.000005   0.000013  -0.000141   0.000205  -0.000597
     78       0.000004   0.000001   0.000000   0.000117  -0.000266   0.000113
     79      -0.000004  -0.000002  -0.000004   0.000031   0.000021  -0.000067
     80      -0.000003   0.000004  -0.000012   0.000143  -0.000140   0.000135
     81       0.000004   0.000006  -0.000006  -0.000014  -0.000071  -0.000130
     82      -0.000005  -0.000002   0.000001   0.000062  -0.000026  -0.000003
     83      -0.000004   0.000008  -0.000013  -0.000089  -0.000061   0.000368
     84       0.000001  -0.000009   0.000008   0.018467   0.072669   0.009845
     85       0.000015  -0.000176   0.000292  -0.026827   0.047401   0.036515
     86      -0.000001  -0.000008   0.000078  -0.020202   0.028904  -0.083052
     87       0.000255  -0.000757   0.002003  -0.497362  -0.669376  -0.294395
     88       0.000082  -0.000432   0.000999  -0.243765  -0.300697  -0.121517
     89      -0.000074   0.000175  -0.000442   0.113994   0.183746   0.038065
     90       0.000002  -0.000057   0.000101  -0.007502   0.030176   0.033985
     91      -0.000197   0.001325  -0.002183   0.252374   0.038138  -0.502447
     92       0.000285  -0.002042   0.003404  -0.396889  -0.014071   0.724288
     93      -0.000105   0.000991  -0.002030   0.279677  -0.236005   0.142223
     94      -0.000159   0.001192  -0.002406   0.318570  -0.306330   0.183872
     95      -0.000253   0.001974  -0.003982   0.526985  -0.516954   0.237788


The first frequency considered to be a vibration is 7
The total number of vibrations considered is 89


--------------------------
THERMOCHEMISTRY AT 298.15K
--------------------------

Temperature         ...   298.15 K
Pressure            ...     1.00 atm
Total Mass          ...   222.30 AMU
Quasi RRHO          ...     True
Cut-Off Frequency   ...     1.00 cm^-1

Throughout the following assumptions are being made:
  (1) The electronic state is orbitally nondegenerate
  (2) There are no thermally accessible electronically excited states
  (3) Hindered rotations indicated by low frequency modes are not
      treated as such but are treated as vibrations and this may
      cause some error
  (4) All equations used are the standard statistical mechanics
      equations for an ideal gas
  (5) All vibrations are strictly harmonic

freq.      26.56  E(vib)   ...       0.56 
freq.      31.33  E(vib)   ...       0.55 
freq.      42.36  E(vib)   ...       0.53 
freq.      55.27  E(vib)   ...       0.52 
freq.     113.34  E(vib)   ...       0.45 
freq.     117.82  E(vib)   ...       0.44 
freq.     162.95  E(vib)   ...       0.39 
freq.     171.25  E(vib)   ...       0.38 
freq.     206.57  E(vib)   ...       0.35 
freq.     209.10  E(vib)   ...       0.34 
freq.     224.13  E(vib)   ...       0.33 
freq.     242.95  E(vib)   ...       0.31 
freq.     281.48  E(vib)   ...       0.28 
freq.     288.64  E(vib)   ...       0.27 
freq.     304.79  E(vib)   ...       0.26 
freq.     307.65  E(vib)   ...       0.26 
freq.     346.82  E(vib)   ...       0.23 
freq.     361.49  E(vib)   ...       0.22 
freq.     390.85  E(vib)   ...       0.20 
freq.     431.10  E(vib)   ...       0.18 
freq.     449.47  E(vib)   ...       0.17 
freq.     453.98  E(vib)   ...       0.16 
freq.     458.10  E(vib)   ...       0.16 
freq.     477.47  E(vib)   ...       0.15 
freq.     503.25  E(vib)   ...       0.14 
freq.     584.00  E(vib)   ...       0.11 
freq.     666.85  E(vib)   ...       0.08 
freq.     695.18  E(vib)   ...       0.07 
freq.     756.50  E(vib)   ...       0.06 
freq.     819.54  E(vib)   ...       0.05 
freq.     836.25  E(vib)   ...       0.04 
freq.     863.04  E(vib)   ...       0.04 
freq.     865.39  E(vib)   ...       0.04 
freq.     897.13  E(vib)   ...       0.03 
freq.     904.87  E(vib)   ...       0.03 
freq.     933.44  E(vib)   ...       0.03 
freq.     957.55  E(vib)   ...       0.03 
freq.    1000.86  E(vib)   ...       0.02 
freq.    1006.08  E(vib)   ...       0.02 
freq.    1025.11  E(vib)   ...       0.02 
freq.    1030.94  E(vib)   ...       0.02 
freq.    1052.71  E(vib)   ...       0.02 
freq.    1083.22  E(vib)   ...       0.02 
freq.    1090.98  E(vib)   ...       0.02 
freq.    1113.36  E(vib)   ...       0.01 
freq.    1155.33  E(vib)   ...       0.01 
freq.    1161.44  E(vib)   ...       0.01 
freq.    1169.90  E(vib)   ...       0.01 
freq.    1217.55  E(vib)   ...       0.01 
freq.    1233.89  E(vib)   ...       0.01 
freq.    1237.85  E(vib)   ...       0.01 
freq.    1243.43  E(vib)   ...       0.01 
freq.    1276.76  E(vib)   ...       0.01 
freq.    1297.30  E(vib)   ...       0.01 
freq.    1329.56  E(vib)   ...       0.01 
freq.    1337.36  E(vib)   ...       0.01 
freq.    1392.04  E(vib)   ...       0.00 
freq.    1407.98  E(vib)   ...       0.00 
freq.    1412.33  E(vib)   ...       0.00 
freq.    1416.71  E(vib)   ...       0.00 
freq.    1432.25  E(vib)   ...       0.00 
freq.    1435.77  E(vib)   ...       0.00 
freq.    1436.76  E(vib)   ...       0.00 
freq.    1437.15  E(vib)   ...       0.00 
freq.    1455.00  E(vib)   ...       0.00 
freq.    1458.29  E(vib)   ...       0.00 
freq.    1460.18  E(vib)   ...       0.00 
freq.    1465.79  E(vib)   ...       0.00 
freq.    1471.01  E(vib)   ...       0.00 
freq.    1487.29  E(vib)   ...       0.00 
freq.    1535.43  E(vib)   ...       0.00 
freq.    1647.08  E(vib)   ...       0.00 
freq.    2780.71  E(vib)   ...       0.00 
freq.    2923.35  E(vib)   ...       0.00 
freq.    2937.87  E(vib)   ...       0.00 
freq.    2984.06  E(vib)   ...       0.00 
freq.    2992.35  E(vib)   ...       0.00 
freq.    3030.56  E(vib)   ...       0.00 
freq.    3033.03  E(vib)   ...       0.00 
freq.    3037.68  E(vib)   ...       0.00 
freq.    3040.80  E(vib)   ...       0.00 
freq.    3045.15  E(vib)   ...       0.00 
freq.    3046.43  E(vib)   ...       0.00 
freq.    3049.24  E(vib)   ...       0.00 
freq.    3059.76  E(vib)   ...       0.00 
freq.    3061.69  E(vib)   ...       0.00 
freq.    3064.35  E(vib)   ...       0.00 
freq.    3084.79  E(vib)   ...       0.00 
freq.    3092.99  E(vib)   ...       0.00 

------------
INNER ENERGY
------------

The inner energy is: U= E(el) + E(ZPE) + E(vib) + E(rot) + E(trans)
    E(el)   - is the total energy from the electronic structure calculation
              = E(kin-el) + E(nuc-el) + E(el-el) + E(nuc-nuc)
    E(ZPE)  - the the zero temperature vibrational energy from the frequency calculation
    E(vib)  - the the finite temperature correction to E(ZPE) due to population
              of excited vibrational states
    E(rot)  - is the rotational thermal energy
    E(trans)- is the translational thermal energy

Summary of contributions to the inner energy U:
Electronic energy                ...    -47.50941220 Eh
Zero point energy                ...      0.25770171 Eh     161.71 kcal/mol
Thermal vibrational correction   ...      0.01391814 Eh       8.73 kcal/mol
Thermal rotational correction    ...      0.00141627 Eh       0.89 kcal/mol
Thermal translational correction ...      0.00141627 Eh       0.89 kcal/mol
-----------------------------------------------------------------------
Total thermal energy                    -47.23495981 Eh


Summary of corrections to the electronic energy:
(perhaps to be used in another calculation)
Total thermal correction                  0.01675069 Eh      10.51 kcal/mol
Non-thermal (ZPE) correction              0.25770171 Eh     161.71 kcal/mol
-----------------------------------------------------------------------
Total correction                          0.27445239 Eh     172.22 kcal/mol


--------
ENTHALPY
--------

The enthalpy is H = U + kB*T
                kB is Boltzmann's constant
Total thermal energy              ...    -47.23495981 Eh 
Thermal Enthalpy correction       ...      0.00094421 Eh       0.59 kcal/mol
-----------------------------------------------------------------------
Total Enthalpy                    ...    -47.23401560 Eh


WARNING (ORCA/SYM): The number of Z matrix atoms does not agree with
the number of centers in the basis set. The point group will therefore
be determined without considering basis set information.


Note: Only C1 symmetry has been detected, increase convergence thresholds 
      if your molecule has a higher symmetry. Symmetry factor of 1.0 is   
      used for the rotational entropy correction. 
 

Note: Rotational entropy computed according to Herzberg 
Infrared and Raman Spectra, Chapter V,1, Van Nostrand Reinhold, 1945 
Point Group:  C1, Symmetry Number:   1  
Rotational constants in cm-1:     0.042269     0.009739     0.008883 

Vibrational entropy computed according to the QRRHO of S. Grimme
Chem.Eur.J. 2012 18 9955 using a reference frequency of 100.0 cm-1


-------
ENTROPY
-------

The entropy contributions are T*S = T*(S(el)+S(vib)+S(rot)+S(trans))
     S(el)   - electronic entropy
     S(vib)  - vibrational entropy
     S(rot)  - rotational entropy
     S(trans)- translational entropy
The entropies will be listed as multiplied by the temperature to get
units of energy

Electronic entropy                ...      0.00000000 Eh      0.00 kcal/mol
Vibrational entropy               ...      0.02460301 Eh     15.44 kcal/mol
Rotational entropy                ...      0.01542088 Eh      9.68 kcal/mol
Translational entropy             ...      0.02000266 Eh     12.55 kcal/mol
-----------------------------------------------------------------------
Final entropy term                ...      0.06002654 Eh     37.67 kcal/mol

In case the symmetry of your molecule has not been determined correctly
or in case you have a reason to use a different symmetry number we print 
out the resulting rotational entropy values for sn=1,12:

 non-linear molecules -----------------------------------
|  sn= 1 | S(rot)=       0.01542088 Eh      9.68 kcal/mol|
|  sn= 2 | S(rot)=       0.01476642 Eh      9.27 kcal/mol|
|  sn= 3 | S(rot)=       0.01438359 Eh      9.03 kcal/mol|
|  sn= 4 | S(rot)=       0.01411196 Eh      8.86 kcal/mol|
|  sn= 5 | S(rot)=       0.01390128 Eh      8.72 kcal/mol|
|  sn= 6 | S(rot)=       0.01372913 Eh      8.62 kcal/mol|
|  sn= 7 | S(rot)=       0.01358358 Eh      8.52 kcal/mol|
|  sn= 8 | S(rot)=       0.01345751 Eh      8.44 kcal/mol|
|  sn= 9 | S(rot)=       0.01334630 Eh      8.37 kcal/mol|
|  sn=10 | S(rot)=       0.01324682 Eh      8.31 kcal/mol|
|  sn=11 | S(rot)=       0.01315683 Eh      8.26 kcal/mol|
|  sn=12 | S(rot)=       0.01307467 Eh      8.20 kcal/mol|
 linear molecules ---------------------------------------
|  Dinfh | S(rot)=       0.00978571 Eh      6.14 kcal/mol|
|  Cinfv | S(rot)=       0.01044016 Eh      6.55 kcal/mol|
 --------------------------------------------------------


-------------------
GIBBS FREE ENERGY
-------------------

The Gibbs free energy is G = H - T*S

Total enthalpy                    ...    -47.23401560 Eh 
Total entropy correction          ...     -0.06002654 Eh    -37.67 kcal/mol
-----------------------------------------------------------------------
Final Gibbs free energy         ...    -47.29404214 Eh

For completeness - the Gibbs free energy minus the electronic energy
G-E(el)                           ...      0.21537006 Eh    135.15 kcal/mol


--------------------------------
SUGGESTED CITATIONS FOR THIS RUN
--------------------------------

Below you find a list of papers that are relevant to this ORCA run
We neither can nor want to force you to cite these papers, but we appreciate if you do
You receive ORCA, which is the product of decades of hard work by many enthusiastic individuals, for free
The only thing we kindly ask in return is that you cite our papers,
We deeply appreciate it, if you show your appreciation for ORCA by not just citing the generic ORCA reference.

Please note that relegating all ORCA citations to the supporting information does *not* help us.
SI sections are not indexed - citations you put there will not count into any citation statistics
But we need these citations in order to attract the funding resources that allow us to do what we are doing

Therefore, if you are a happy ORCA user, please consider citing a few of the papers listed below in the main body of your paper

In addition to the list printed below, the program has created the file /scratch/hbxr153/2000223/aMBH.bibtex that contains the list in bibtex format
You can import this file easily into all common literature databanks and citation aid programs


List of essential papers. We consider these as the minimum necessary citations

  1. Bannwarth, C.; Ehlert, S.; Grimme, S.
     GFN2-xTB—An Accurate and Broadly Parametrized Self-Consistent Tight-Binding Quantum Chemical Method with Multipole Electrostatics and Density-Dependent Dispersion Contributions
     J. Chem. Theory Comput. 2019 15(3), 1652-1671
     doi.org/10.1021/acs.jctc.8b01176
  2. Neese, F.
     Software update: the ORCA program system, version 6.0
     WIRES Comput. Molec. Sci. 2025 15(1), e70019
     doi.org/10.1002/wcms.7019

List of papers to cite with high priority. The work reported in these papers was absolutely
necessary for this run to complete.
Our perspective: the developers of density functionals and basis sets usually get cited in chemistry papers
Good! But without the algorithms to do something with them, the functionals or basis sets would not do anything.
Hence, in our opinion, the algorithm design and method developments papers are equally worthy of getting cited

  1. Bykov, D.; Petrenko, T.; Izsak, R.; Kossmann, S.; Becker, U.; Valeev, E.; Neese, F.
     Efficient implementation of the analytic second derivatives of Hartree-Fock and hybrid DFT energies: a detailed analysis of different approximations
     Molec. Phys. 2015 113 , 1961-1977
     doi.org/10.1080/00268976.2015.1025114
  2. Bannwarth, C.; Caldeweyher, E.; Ehlert, S.; Hansen, A.; Pracht, P.; Seibert, J.; Spicher, S.; Grimme, S.
     Extended tight-binding quantum chemistry methods
     WIRES Comput. Molec. Sci. 2020 11(2), e1493
     doi.org/10.1002/wcms.1493

List of suggested additional citations. These are papers that are important in the 'surrounding' of 
of this run, or papers that preceded the highly important papers. If you like your results we are grateful for a citation.

  1. Neese, F.
     The ORCA program system
     WIRES Comput. Molec. Sci. 2012 2(1), 73-78
     doi.org/10.1002/wcms.81
  2. Neese, F.
     Software update: the ORCA program system, version 4.0
     WIRES Comput. Molec. Sci. 2018 8(1), 1-6
     doi.org/10.1002/wcms.1327
  3. Neese, F.; Wennmohs, F.; Becker, U.; Riplinger, C.
     The ORCA quantum chemistry program package
     J. Chem. Phys. 2020 152(22), 224108
     doi.org/10.1063/5.0004608
  4. Neese, F.
     Software update: The ORCA program system—Version 5.0
     WIRES Comput. Molec. Sci. 2022 12(1), e1606
     doi.org/10.1002/wcms.1606

List of optional additional citations

  1. Neese, F.
     Approximate second-order SCF convergence for spin unrestricted wavefunctions
     Chem. Phys. Lett. 2000 325(1-3), 93-98
     doi.org/10.1016/s0009-2614(00)00662-x

Timings for individual modules:

Sum of individual times          ...        3.027 sec (=   0.050 min)
Geometry relaxation              ...        0.275 sec (=   0.005 min)   9.1 %
XTB module                       ...        2.752 sec (=   0.046 min)  90.9 %
                             ****ORCA TERMINATED NORMALLY****
TOTAL RUN TIME: 0 days 0 hours 0 minutes 4 seconds 809 msec
