103
Mode 0 Frame: * (null), Energy   -1000.0000000
C 6.792736 -3.079768 -1.146603
C 6.866522 -1.682824 -1.037953
C 5.794410 -0.963795 -0.586143
C 4.593502 -1.607119 -0.215976
C 4.504884 -3.016984 -0.368878
C 5.634129 -3.729779 -0.825847
C 3.457736 -0.896184 0.256736
C 2.281277 -1.576424 0.490621
C 2.177837 -2.975002 0.312811
C 3.288252 -3.672188 -0.089568
C 3.457712 0.567738 0.462282
C 4.341922 1.203357 1.375899
C 4.292258 2.616263 1.513384
C 3.346652 3.350680 0.770585
C 2.458872 2.728011 -0.069016
C 2.520875 1.322643 -0.216339
C 5.240333 0.480814 2.191352
C 6.076851 1.126502 3.059583
C 6.057083 2.525811 3.161650
C 5.177531 3.252641 2.409651
O 1.167783 -0.873062 0.888825
O 1.629607 0.710473 -1.064687
P 0.397111 -0.106828 -0.344876
O -0.011369 -1.105344 -1.403165
O -0.610695 0.785331 0.273249
H 7.651935 -3.632956 -1.496856
H 7.778283 -1.175482 -1.318130
H 5.856173 0.112289 -0.515708
H 5.558682 -4.803584 -0.925681
H 3.229610 -4.744991 -0.214810
H 3.314028 4.426357 0.879276
H 5.255022 -0.597238 2.128547
H 6.757689 0.558420 3.676739
H 6.731280 3.019829 3.845915
H 5.137924 4.329619 2.494115
H -1.252985 -1.644114 -1.213143
C 1.461948 3.494789 -0.843431
C 1.575236 3.556445 -2.211268
C 0.682787 4.319001 -2.976871
C -0.325945 5.013567 -2.370617
C -0.499914 4.949619 -0.971794
C -1.554324 5.631259 -0.326001
C -1.727248 5.534675 1.026584
C -0.854556 4.746344 1.793389
C 0.185129 4.085039 1.200600
C 0.399414 4.173977 -0.191308
H -2.227440 6.229063 -0.925146
H -2.538833 6.056582 1.512966
H -1.012009 4.664099 2.859104
H 0.846226 3.468824 1.791434
H -1.005833 5.619162 -2.953685
H 0.809097 4.359022 -4.049141
H 2.374936 3.020048 -2.702231
C 0.882264 -3.629402 0.581443
C 0.369549 -3.598539 1.856064
C -0.850621 -4.216094 2.159502
C -1.559570 -4.856304 1.182409
C -1.084736 -4.885662 -0.145069
C -1.817645 -5.512522 -1.174729
C -1.359880 -5.511123 -2.461530
C -0.147855 -4.877709 -2.775592
C 0.591707 -4.270774 -1.799312
C 0.152710 -4.263281 -0.458571
H 0.921347 -3.097333 2.639496
H -1.219244 -4.184025 3.175396
H -2.496885 -5.344426 1.412013
H -2.755665 -5.990313 -0.925803
H -1.929096 -5.988659 -3.246419
H 0.195777 -4.868938 -3.800275
H 1.514039 -3.769197 -2.051668
C -3.513573 1.203758 -0.247947
C -2.888460 0.260328 -1.046010
C -3.064050 -1.130868 -0.687570
C -4.246485 -1.330429 0.053631
C -5.204434 -0.313045 -0.028712
O -2.229974 -2.071258 -0.979837
C -4.381438 -2.568820 0.881070
H -5.417341 0.120415 -0.995593
H -5.393774 -2.695643 1.253390
H -4.106675 -3.417690 0.255437
H -3.678761 -2.556289 1.714139
O -2.282121 0.532719 -2.196008
C -1.999247 1.909203 -2.419154
C -3.250623 2.748165 -2.179200
H -1.197089 2.211569 -1.738710
H -1.647799 1.968051 -3.450313
C -3.631798 2.621742 -0.705742
H -4.053963 2.374051 -2.818462
H -2.961451 3.233475 -0.093197
H -4.647911 2.985195 -0.529081
H -3.565166 1.056957 0.815433
C -6.224565 -0.052407 0.966553
C -7.459021 0.476808 0.569060
C -5.995536 -0.261223 2.332270
C -8.444733 0.742167 1.498696
H -7.642566 0.657128 -0.480332
C -6.981147 0.016903 3.258852
H -5.031101 -0.617263 2.659995
C -8.210404 0.509467 2.845980
H -9.396748 1.136391 1.176190
H -6.790630 -0.146760 4.309022
H -8.979767 0.721099 3.573112
H -3.052047 3.786796 -2.437415
103
Mode 0 Frame: * Frequency(6) -243.3300
C 6.792303 -3.079648 -1.146390
C 6.866187 -1.682726 -1.037781
C 5.794090 -0.963612 -0.586015
C 4.592938 -1.606503 -0.215752
C 4.504369 -3.016371 -0.368695
C 5.633522 -3.729365 -0.825587
C 3.457385 -0.895210 0.256958
C 2.280039 -1.574524 0.491169
C 2.177190 -2.973536 0.312960
C 3.287461 -3.671012 -0.089366
C 3.458370 0.568729 0.462870
C 4.342438 1.204016 1.376409
C 4.293149 2.616965 1.514176
C 3.348062 3.352529 0.771807
C 2.460508 2.730355 -0.067829
C 2.521638 1.324794 -0.215056
C 5.240668 0.481192 2.191770
C 6.077317 1.126498 3.060101
C 6.057859 2.525773 3.162394
C 5.178478 3.252874 2.410489
O 1.168175 -0.870795 0.890112
O 1.631039 0.716815 -1.062092
P 0.395820 -0.110972 -0.351201
O -0.002947 -1.102643 -1.408822
O -0.617164 0.782039 0.265583
H 7.651459 -3.633004 -1.496605
H 7.778046 -1.175453 -1.317952
H 5.856159 0.112513 -0.515682
H 5.557889 -4.803215 -0.925388
H 3.228461 -4.743880 -0.214582
H 3.316403 4.428266 0.880905
H 5.255069 -0.596889 2.128707
H 6.758034 0.558176 3.677246
H 6.732184 3.019533 3.846768
H 5.139192 4.329902 2.495170
H -1.299958 -1.691717 -1.209169
C 1.463096 3.496020 -0.842781
C 1.575963 3.557082 -2.210764
C 0.682855 4.318641 -2.976654
C -0.326515 5.012709 -2.370747
C -0.500541 4.948907 -0.971869
C -1.555559 5.629699 -0.326203
C -1.728283 5.533391 1.026337
C -0.854917 4.745986 1.793369
C 0.185312 4.085382 1.200733
C 0.399569 4.174229 -0.191203
H -2.228791 6.227386 -0.925370
H -2.540032 6.055094 1.512666
H -1.012025 4.664145 2.859209
H 0.847237 3.470029 1.791578
H -1.006695 5.617788 -2.954024
H 0.809412 4.358622 -4.048912
H 2.376061 3.021121 -2.701529
C 0.882115 -3.628864 0.581413
C 0.369311 -3.598336 1.856012
C -0.850862 -4.215893 2.159409
C -1.559849 -4.855993 1.182291
C -1.084690 -4.885707 -0.145016
C -1.817504 -5.512607 -1.174671
C -1.359705 -5.511205 -2.461429
C -0.147656 -4.877834 -2.775389
C 0.591934 -4.271028 -1.799044
C 0.152798 -4.263376 -0.458396
H 0.920919 -3.096768 2.639433
H -1.219559 -4.183574 3.175315
H -2.497506 -5.343598 1.411635
H -2.755548 -5.990346 -0.925800
H -1.928905 -5.988691 -3.246388
H 0.196058 -4.868906 -3.800075
H 1.513984 -3.768960 -2.051255
C -3.571353 1.163037 -0.237220
C -2.883978 0.243441 -1.045810
C -3.061605 -1.140502 -0.684465
C -4.233587 -1.323263 0.049612
C -5.159312 -0.247107 -0.034396
O -2.229318 -2.097770 -0.981565
C -4.403922 -2.562975 0.866770
H -5.453490 0.079538 -1.032506
H -5.421211 -2.675697 1.230267
H -4.134243 -3.413812 0.241678
H -3.708134 -2.563562 1.706179
O -2.279642 0.532184 -2.179367
C -2.006657 1.911775 -2.406020
C -3.267401 2.735143 -2.166485
H -1.205581 2.217543 -1.725917
H -1.656010 1.971537 -3.437287
C -3.671833 2.590927 -0.698631
H -4.059514 2.365384 -2.822439
H -2.996950 3.185440 -0.073814
H -4.682928 2.972517 -0.534244
H -3.489507 1.055358 0.839435
C -6.194361 -0.010092 0.964904
C -7.440668 0.490955 0.566141
C -5.977927 -0.238352 2.329211
C -8.436156 0.736184 1.492683
H -7.624557 0.676697 -0.482458
C -6.974454 0.014346 3.253192
H -5.011962 -0.587156 2.661032
C -8.205657 0.501247 2.839902
H -9.391990 1.118011 1.166294
H -6.788454 -0.161664 4.302251
H -8.979432 0.702735 3.565241
H -3.073688 3.779626 -2.405482
103
Mode 0 Frame: * Frequency(6) -243.3300
C 6.791918 -3.079541 -1.146200
C 6.865887 -1.682639 -1.037627
C 5.793805 -0.963449 -0.585902
C 4.592434 -1.605953 -0.215553
C 4.503910 -3.015825 -0.368531
C 5.632980 -3.728996 -0.825356
C 3.457073 -0.894342 0.257156
C 2.278936 -1.572830 0.491657
C 2.176614 -2.972230 0.313093
C 3.286757 -3.669964 -0.089185
C 3.458957 0.569613 0.463395
C 4.342899 1.204604 1.376864
C 4.293943 2.617591 1.514882
C 3.349319 3.354177 0.772896
C 2.461967 2.732446 -0.066771
C 2.522317 1.326712 -0.213912
C 5.240966 0.481528 2.192142
C 6.077732 1.126495 3.060563
C 6.058550 2.525739 3.163057
C 5.179322 3.253083 2.411236
O 1.168524 -0.868773 0.891260
O 1.632316 0.722470 -1.059779
P 0.394669 -0.114666 -0.356840
O 0.004563 -1.100234 -1.413866
O -0.622931 0.779104 0.258747
H 7.651035 -3.633046 -1.496380
H 7.777835 -1.175427 -1.317792
H 5.856146 0.112713 -0.515659
H 5.557181 -4.802887 -0.925128
H 3.227436 -4.742889 -0.214378
H 3.318521 4.429969 0.882358
H 5.255111 -0.596578 2.128849
H 6.758343 0.557958 3.677699
H 6.732989 3.019269 3.847529
H 5.140322 4.330154 2.496110
H -1.341841 -1.734161 -1.205625
C 1.464121 3.497118 -0.842201
C 1.576612 3.557651 -2.210315
C 0.682916 4.318320 -2.976461
C -0.327022 5.011945 -2.370864
C -0.501099 4.948272 -0.971937
C -1.556659 5.628308 -0.326384
C -1.729206 5.532246 1.026116
C -0.855238 4.745666 1.793351
C 0.185476 4.085687 1.200851
C 0.399708 4.174453 -0.191109
H -2.229996 6.225891 -0.925569
H -2.541101 6.053767 1.512399
H -1.012039 4.664187 2.859303
H 0.848138 3.471103 1.791707
H -1.007464 5.616563 -2.954326
H 0.809693 4.358266 -4.048707
H 2.377064 3.022078 -2.700902
C 0.881982 -3.628384 0.581386
C 0.369099 -3.598156 1.855966
C -0.851078 -4.215713 2.159325
C -1.560098 -4.855715 1.182185
C -1.084650 -4.885747 -0.144969
C -1.817379 -5.512682 -1.174620
C -1.359549 -5.511277 -2.461339
C -0.147478 -4.877945 -2.775208
C 0.592137 -4.271254 -1.798805
C 0.152877 -4.263461 -0.458239
H 0.920537 -3.096263 2.639376
H -1.219840 -4.183172 3.175243
H -2.498059 -5.342859 1.411299
H -2.755444 -5.990376 -0.925798
H -1.928734 -5.988719 -3.246361
H 0.196309 -4.868877 -3.799897
H 1.513935 -3.768748 -2.050886
C -3.622871 1.126728 -0.227655
C -2.879982 0.228383 -1.045632
C -3.059425 -1.149092 -0.681697
C -4.222087 -1.316874 0.046028
C -5.119080 -0.188314 -0.039464
O -2.228734 -2.121410 -0.983106
C -4.423969 -2.557764 0.854019
H -5.485722 0.043091 -1.065418
H -5.445674 -2.657913 1.209650
H -4.158823 -3.410353 0.229409
H -3.734323 -2.570047 1.699082
O -2.277432 0.531706 -2.164528
C -2.013263 1.914067 -2.394309
C -3.282361 2.723532 -2.155147
H -1.213153 2.222870 -1.714509
H -1.663331 1.974646 -3.425673
C -3.707529 2.563450 -0.692290
H -4.064463 2.357657 -2.825984
H -3.028602 3.142610 -0.056531
H -4.714151 2.961212 -0.538847
H -3.422047 1.053933 0.860835
C -6.167430 0.027638 0.963434
C -7.424303 0.503569 0.563539
C -5.962227 -0.217960 2.326483
C -8.428508 0.730849 1.487321
H -7.608499 0.694144 -0.484354
C -6.968485 0.012067 3.248145
H -4.994896 -0.560312 2.661956
C -8.201425 0.493918 2.834483
H -9.387747 1.101624 1.157471
H -6.786514 -0.174953 4.296214
H -8.979134 0.686360 3.558222
H -3.092984 3.773233 -2.377010
103
Mode 0 Frame: * Frequency(6) -243.3300
C 6.791621 -3.079458 -1.146053
C 6.865657 -1.682572 -1.037509
C 5.793586 -0.963324 -0.585814
C 4.592047 -1.605530 -0.215399
C 4.503557 -3.015405 -0.368406
C 5.632563 -3.728712 -0.825177
C 3.456832 -0.893674 0.257308
C 2.278086 -1.571525 0.492033
C 2.176170 -2.971223 0.313195
C 3.286214 -3.669157 -0.089046
C 3.459409 0.570294 0.463799
C 4.343253 1.205057 1.377214
C 4.294555 2.618073 1.515426
C 3.350286 3.355446 0.773735
C 2.463090 2.734056 -0.065956
C 2.522841 1.328190 -0.213032
C 5.241196 0.481787 2.192429
C 6.078052 1.126492 3.060919
C 6.059083 2.525713 3.163568
C 5.179972 3.253243 2.411811
O 1.168793 -0.867216 0.892144
O 1.633299 0.726825 -1.057998
P 0.393782 -0.117512 -0.361183
O 0.010346 -1.098379 -1.417750
O -0.627373 0.776844 0.253483
H 7.650708 -3.633079 -1.496208
H 7.777673 -1.175408 -1.317670
H 5.856137 0.112867 -0.515641
H 5.556636 -4.802633 -0.924927
H 3.226647 -4.742127 -0.214221
H 3.320152 4.431280 0.883477
H 5.255143 -0.596338 2.128958
H 6.758580 0.557791 3.678047
H 6.733610 3.019066 3.848115
H 5.141193 4.330349 2.496834
H -1.374095 -1.766847 -1.202896
C 1.464909 3.497964 -0.841755
C 1.577111 3.558088 -2.209969
C 0.682962 4.318073 -2.976313
C -0.327414 5.011356 -2.370953
C -0.501530 4.947783 -0.971989
C -1.557507 5.627237 -0.326523
C -1.729917 5.531365 1.025946
C -0.855486 4.745420 1.793337
C 0.185601 4.085923 1.200942
C 0.399814 4.174626 -0.191037
H -2.230924 6.224739 -0.925723
H -2.541924 6.052745 1.512193
H -1.012049 4.664219 2.859375
H 0.848833 3.471930 1.791806
H -1.008056 5.615620 -2.954559
H 0.809910 4.357992 -4.048550
H 2.377836 3.022815 -2.700420
C 0.881879 -3.628014 0.581365
C 0.368935 -3.598017 1.855931
C -0.851243 -4.215575 2.159261
C -1.560290 -4.855501 1.182104
C -1.084618 -4.885777 -0.144933
C -1.817282 -5.512740 -1.174580
C -1.359428 -5.511333 -2.461270
C -0.147342 -4.878030 -2.775069
C 0.592293 -4.271429 -1.798621
C 0.152937 -4.263526 -0.458119
H 0.920242 -3.095875 2.639333
H -1.220057 -4.182863 3.175187
H -2.498485 -5.342291 1.411040
H -2.755364 -5.990399 -0.925796
H -1.928603 -5.988740 -3.246339
H 0.196502 -4.868855 -3.799759
H 1.513897 -3.768585 -2.050602
C -3.662545 1.098767 -0.220289
C -2.876904 0.216788 -1.045494
C -3.057746 -1.155707 -0.679565
C -4.213230 -1.311954 0.043268
C -5.088097 -0.143038 -0.043367
O -2.228283 -2.139614 -0.984293
C -4.439407 -2.553751 0.844200
H -5.510544 0.015023 -1.090764
H -5.464513 -2.644217 1.193772
H -4.177752 -3.407690 0.219961
H -3.754492 -2.575042 1.693616
O -2.275730 0.531339 -2.153102
C -2.018351 1.915833 -2.385291
C -3.293882 2.714590 -2.146416
H -1.218984 2.226972 -1.705725
H -1.668969 1.977040 -3.416730
C -3.735019 2.542291 -0.687407
H -4.068275 2.351706 -2.828715
H -3.052977 3.109627 -0.043221
H -4.738196 2.952506 -0.542392
H -3.370096 1.052835 0.877316
C -6.146691 0.056694 0.962302
C -7.411701 0.513283 0.561535
C -5.950136 -0.202256 2.324383
C -8.422618 0.726740 1.483192
H -7.596133 0.707581 -0.485814
C -6.963889 0.010311 3.244259
H -4.981754 -0.539640 2.662668
C -8.198166 0.488274 2.830309
H -9.384480 1.089003 1.150676
H -6.785020 -0.185187 4.291565
H -8.978904 0.673751 3.552818
H -3.107843 3.768310 -2.355084
103
Mode 0 Frame: * Frequency(6) -243.3300
C 6.791445 -3.079409 -1.145966
C 6.865520 -1.682532 -1.037439
C 5.793456 -0.963249 -0.585762
C 4.591817 -1.605279 -0.215308
C 4.503347 -3.015155 -0.368331
C 5.632316 -3.728544 -0.825071
C 3.456689 -0.893277 0.257398
C 2.277582 -1.570751 0.492256
C 2.175906 -2.970627 0.313256
C 3.285892 -3.668678 -0.088964
C 3.459677 0.570698 0.464038
C 4.343464 1.205326 1.377422
C 4.294917 2.618358 1.515748
C 3.350861 3.356199 0.774232
C 2.463756 2.735011 -0.065473
C 2.523152 1.329066 -0.212509
C 5.241332 0.481941 2.192599
C 6.078241 1.126490 3.061129
C 6.059399 2.525698 3.163871
C 5.180357 3.253338 2.412152
O 1.168952 -0.866293 0.892668
O 1.633882 0.729408 -1.056941
P 0.393257 -0.119199 -0.363759
O 0.013776 -1.097279 -1.420054
O -0.630007 0.775504 0.250360
H 7.650515 -3.633099 -1.496105
H 7.777577 -1.175396 -1.317597
H 5.856131 0.112959 -0.515631
H 5.556313 -4.802483 -0.924808
H 3.226178 -4.741674 -0.214128
H 3.321120 4.432057 0.884140
H 5.255162 -0.596196 2.129023
H 6.758720 0.557691 3.678254
H 6.733978 3.018945 3.848462
H 5.141709 4.330464 2.497264
H -1.393224 -1.786233 -1.201277
C 1.465377 3.498466 -0.841490
C 1.577407 3.558348 -2.209764
C 0.682990 4.317926 -2.976224
C -0.327646 5.011007 -2.371007
C -0.501785 4.947493 -0.972019
C -1.558010 5.626602 -0.326605
C -1.730338 5.530842 1.025846
C -0.855633 4.745274 1.793329
C 0.185676 4.086062 1.200996
C 0.399877 4.174728 -0.190994
H -2.231474 6.224056 -0.925814
H -2.542413 6.052139 1.512071
H -1.012056 4.664237 2.859418
H 0.849244 3.472421 1.791864
H -1.008408 5.615061 -2.954697
H 0.810038 4.357829 -4.048456
H 2.378294 3.023252 -2.700134
C 0.881818 -3.627795 0.581353
C 0.368839 -3.597934 1.855910
C -0.851342 -4.215493 2.159223
C -1.560403 -4.855374 1.182055
C -1.084600 -4.885796 -0.144912
C -1.817225 -5.512774 -1.174557
C -1.359357 -5.511367 -2.461229
C -0.147261 -4.878081 -2.774986
C 0.592386 -4.271532 -1.798512
C 0.152973 -4.263565 -0.458047
H 0.920068 -3.095645 2.639307
H -1.220185 -4.182679 3.175154
H -2.498738 -5.341953 1.410886
H -2.755317 -5.990413 -0.925795
H -1.928525 -5.988753 -3.246327
H 0.196616 -4.868842 -3.799678
H 1.513875 -3.768489 -2.050434
C -3.686076 1.082183 -0.215921
C -2.875079 0.209910 -1.045413
C -3.056751 -1.159630 -0.678301
C -4.207978 -1.309035 0.041632
C -5.069722 -0.116185 -0.045681
O -2.228016 -2.150412 -0.984997
C -4.448564 -2.551371 0.838376
H -5.525266 -0.001624 -1.105796
H -5.475687 -2.636094 1.184355
H -4.188979 -3.406111 0.214358
H -3.766454 -2.578004 1.690374
O -2.274720 0.531121 -2.146324
C -2.021369 1.916880 -2.379942
C -3.300714 2.709287 -2.141238
H -1.222443 2.229405 -1.700515
H -1.672313 1.978460 -3.411425
C -3.751323 2.529741 -0.684511
H -4.070535 2.348176 -2.830334
H -3.067434 3.090065 -0.035327
H -4.752456 2.947343 -0.544495
H -3.339284 1.052184 0.887090
C -6.134391 0.073927 0.961631
C -7.404227 0.519044 0.560346
C -5.942964 -0.192942 2.323137
C -8.419125 0.724303 1.480743
H -7.588799 0.715550 -0.486679
C -6.961163 0.009270 3.241954
H -4.973960 -0.527379 2.663090
C -8.196233 0.484926 2.827834
H -9.382543 1.081518 1.146646
H -6.784134 -0.191257 4.288807
H -8.978767 0.666272 3.549612
H -3.116657 3.765390 -2.342079
103
Mode 0 Frame: * Frequency(6) -243.3300
C 6.791408 -3.079399 -1.145949
C 6.865492 -1.682524 -1.037424
C 5.793429 -0.963234 -0.585752
C 4.591770 -1.605227 -0.215289
C 4.503304 -3.015104 -0.368316
C 5.632265 -3.728509 -0.825050
C 3.456660 -0.893195 0.257417
C 2.277479 -1.570592 0.492302
C 2.175852 -2.970504 0.313269
C 3.285826 -3.668580 -0.088947
C 3.459732 0.570781 0.464087
C 4.343507 1.205381 1.377464
C 4.294992 2.618417 1.515814
C 3.350979 3.356354 0.774335
C 2.463893 2.735207 -0.065374
C 2.523215 1.329246 -0.212402
C 5.241360 0.481973 2.192634
C 6.078280 1.126490 3.061173
C 6.059464 2.525694 3.163933
C 5.180437 3.253357 2.412222
O 1.168985 -0.866103 0.892776
O 1.634002 0.729939 -1.056724
P 0.393149 -0.119546 -0.364288
O 0.014482 -1.097053 -1.420527
O -0.630549 0.775228 0.249719
H 7.650475 -3.633102 -1.496084
H 7.777557 -1.175393 -1.317582
H 5.856130 0.112978 -0.515628
H 5.556247 -4.802452 -0.924783
H 3.226082 -4.741581 -0.214109
H 3.321319 4.432217 0.884276
H 5.255166 -0.596167 2.129037
H 6.758749 0.557671 3.678296
H 6.734054 3.018921 3.848534
H 5.141815 4.330488 2.497352
H -1.397157 -1.790218 -1.200945
C 1.465473 3.498569 -0.841436
C 1.577468 3.558401 -2.209721
C 0.682996 4.317896 -2.976206
C -0.327693 5.010935 -2.371017
C -0.501837 4.947433 -0.972026
C -1.558113 5.626471 -0.326622
C -1.730425 5.530734 1.025825
C -0.855663 4.745244 1.793328
C 0.185691 4.086091 1.201007
C 0.399890 4.174749 -0.190985
H -2.231587 6.223916 -0.925833
H -2.542513 6.052014 1.512046
H -1.012057 4.664241 2.859427
H 0.849329 3.472522 1.791876
H -1.008480 5.614946 -2.954726
H 0.810065 4.357796 -4.048437
H 2.378388 3.023342 -2.700075
C 0.881806 -3.627750 0.581350
C 0.368819 -3.597917 1.855906
C -0.851362 -4.215476 2.159215
C -1.560427 -4.855348 1.182046
C -1.084596 -4.885799 -0.144907
C -1.817213 -5.512782 -1.174552
C -1.359342 -5.511373 -2.461220
C -0.147244 -4.878091 -2.774969
C 0.592405 -4.271553 -1.798490
C 0.152981 -4.263573 -0.458032
H 0.920032 -3.095597 2.639302
H -1.220212 -4.182642 3.175147
H -2.498790 -5.341884 1.410854
H -2.755307 -5.990416 -0.925795
H -1.928509 -5.988756 -3.246324
H 0.196640 -4.868839 -3.799661
H 1.513870 -3.768469 -2.050399
C -3.690913 1.078774 -0.215023
C -2.874704 0.208496 -1.045396
C -3.056546 -1.160437 -0.678041
C -4.206898 -1.308435 0.041295
C -5.065944 -0.110664 -0.046157
O -2.227961 -2.152631 -0.985142
C -4.450446 -2.550882 0.837179
H -5.528292 -0.005047 -1.108887
H -5.477984 -2.634424 1.182419
H -4.191287 -3.405786 0.213206
H -3.768913 -2.578612 1.689708
O -2.274513 0.531076 -2.144931
C -2.021989 1.917096 -2.378843
C -3.302119 2.708197 -2.140173
H -1.223154 2.229905 -1.699444
H -1.673001 1.978752 -3.410334
C -3.754675 2.527162 -0.683916
H -4.071000 2.347450 -2.830667
H -3.070406 3.086043 -0.033704
H -4.755388 2.946282 -0.544927
H -3.332949 1.052050 0.889100
C -6.131862 0.077470 0.961493
C -7.402690 0.520229 0.560102
C -5.941490 -0.191027 2.322881
C -8.418407 0.723802 1.480239
H -7.587291 0.717189 -0.486857
C -6.960603 0.009056 3.241480
H -4.972357 -0.524858 2.663177
C -8.195835 0.484238 2.827325
H -9.382144 1.079980 1.145817
H -6.783952 -0.192505 4.288240
H -8.978739 0.664734 3.548953
H -3.118468 3.764790 -2.339406
103
Mode 0 Frame: * Frequency(6) -243.3300
C 6.791516 -3.079429 -1.146002
C 6.865576 -1.682548 -1.037467
C 5.793509 -0.963280 -0.585783
C 4.591910 -1.605380 -0.215345
C 4.503432 -3.015256 -0.368361
C 5.632416 -3.728612 -0.825114
C 3.456747 -0.893438 0.257362
C 2.277787 -1.571065 0.492166
C 2.176013 -2.970869 0.313232
C 3.286022 -3.668873 -0.088997
C 3.459568 0.570534 0.463941
C 4.343378 1.205217 1.377337
C 4.294770 2.618243 1.515617
C 3.350628 3.355894 0.774031
C 2.463486 2.734623 -0.065669
C 2.523026 1.328710 -0.212721
C 5.241277 0.481879 2.192530
C 6.078164 1.126491 3.061044
C 6.059271 2.525704 3.163748
C 5.180201 3.253299 2.412014
O 1.168888 -0.866668 0.892455
O 1.633646 0.728361 -1.057370
P 0.393470 -0.118515 -0.362714
O 0.012385 -1.097725 -1.419119
O -0.628939 0.776047 0.251627
H 7.650593 -3.633091 -1.496147
H 7.777616 -1.175401 -1.317627
H 5.856133 0.112922 -0.515635
H 5.556444 -4.802544 -0.924856
H 3.226368 -4.741858 -0.214166
H 3.320728 4.431742 0.883871
H 5.255154 -0.596254 2.128997
H 6.758663 0.557732 3.678170
H 6.733829 3.018994 3.848321
H 5.141500 4.330417 2.497089
H -1.385466 -1.778371 -1.201934
C 1.465187 3.498262 -0.841598
C 1.577287 3.558242 -2.209847
C 0.682979 4.317986 -2.976260
C -0.327551 5.011148 -2.370985
C -0.501681 4.947611 -0.972007
C -1.557806 5.626860 -0.326572
C -1.730167 5.531054 1.025887
C -0.855573 4.745333 1.793333
C 0.185646 4.086006 1.200974
C 0.399852 4.174687 -0.191011
H -2.231251 6.224333 -0.925777
H -2.542214 6.052384 1.512120
H -1.012053 4.664230 2.859401
H 0.849077 3.472222 1.791840
H -1.008265 5.615288 -2.954641
H 0.809986 4.357895 -4.048494
H 2.378109 3.023075 -2.700250
C 0.881843 -3.627884 0.581358
C 0.368878 -3.597968 1.855918
C -0.851302 -4.215526 2.159239
C -1.560357 -4.855426 1.182075
C -1.084607 -4.885788 -0.144920
C -1.817248 -5.512760 -1.174566
C -1.359386 -5.511353 -2.461245
C -0.147293 -4.878060 -2.775020
C 0.592348 -4.271490 -1.798556
C 0.152959 -4.263549 -0.458076
H 0.920139 -3.095738 2.639318
H -1.220133 -4.182754 3.175167
H -2.498636 -5.342090 1.410948
H -2.755336 -5.990407 -0.925795
H -1.928557 -5.988748 -3.246332
H 0.196570 -4.868847 -3.799711
H 1.513884 -3.768528 -2.050502
C -3.676533 1.088908 -0.217692
C -2.875819 0.212699 -1.045446
C -3.057154 -1.158039 -0.678813
C -4.210108 -1.310219 0.042295
C -5.077174 -0.127075 -0.044743
O -2.228125 -2.146033 -0.984711
C -4.444850 -2.552336 0.840738
H -5.519295 0.005127 -1.099700
H -5.471155 -2.639388 1.188174
H -4.184426 -3.406751 0.216630
H -3.761603 -2.576802 1.691689
O -2.275130 0.531209 -2.149073
C -2.020145 1.916456 -2.382111
C -3.297943 2.711438 -2.143338
H -1.221040 2.228418 -1.702628
H -1.670957 1.977884 -3.413576
C -3.744711 2.534831 -0.685686
H -4.069619 2.349607 -2.829678
H -3.061571 3.097998 -0.038528
H -4.746673 2.949437 -0.543642
H -3.351779 1.052448 0.883126
C -6.139379 0.066938 0.961903
C -7.407258 0.516708 0.560828
C -5.945873 -0.196719 2.323642
C -8.420542 0.725292 1.481736
H -7.591773 0.712318 -0.486328
C -6.962269 0.009693 3.242889
H -4.977121 -0.532351 2.662919
C -8.197016 0.486284 2.828838
H -9.383328 1.084554 1.148280
H -6.784493 -0.188796 4.289925
H -8.978823 0.669305 3.550912
H -3.113082 3.766574 -2.347353
103
Mode 0 Frame: * Frequency(6) -243.3300
C 6.791756 -3.079496 -1.146120
C 6.865762 -1.682603 -1.037563
C 5.793686 -0.963381 -0.585854
C 4.592223 -1.605722 -0.215469
C 4.503718 -3.015596 -0.368463
C 5.632753 -3.728842 -0.825258
C 3.456941 -0.893978 0.257239
C 2.278473 -1.572119 0.491862
C 2.176372 -2.971681 0.313149
C 3.286461 -3.669524 -0.089110
C 3.459203 0.569984 0.463615
C 4.343092 1.204851 1.377055
C 4.294276 2.617853 1.515178
C 3.349846 3.354869 0.773353
C 2.462579 2.733323 -0.066327
C 2.522603 1.327518 -0.213432
C 5.241091 0.481669 2.192299
C 6.077906 1.126493 3.060757
C 6.058841 2.525725 3.163336
C 5.179676 3.253170 2.411549
O 1.168670 -0.867925 0.891741
O 1.632852 0.724844 -1.058808
P 0.394186 -0.116217 -0.359207
O 0.007715 -1.099223 -1.415982
O -0.625352 0.777873 0.255878
H 7.650857 -3.633064 -1.496286
H 7.777747 -1.175417 -1.317726
H 5.856141 0.112797 -0.515649
H 5.556884 -4.802749 -0.925018
H 3.227006 -4.742474 -0.214292
H 3.319410 4.430683 0.882968
H 5.255128 -0.596447 2.128909
H 6.758472 0.557867 3.677888
H 6.733328 3.019158 3.847848
H 5.140797 4.330260 2.496505
H -1.359419 -1.751975 -1.204138
C 1.464550 3.497579 -0.841958
C 1.576884 3.557889 -2.210126
C 0.682941 4.318185 -2.976380
C -0.327236 5.011624 -2.370913
C -0.501334 4.948005 -0.971965
C -1.557122 5.627725 -0.326459
C -1.729593 5.531766 1.026024
C -0.855373 4.745532 1.793344
C 0.185544 4.085816 1.200900
C 0.399766 4.174547 -0.191070
H -2.230502 6.225263 -0.925653
H -2.541550 6.053210 1.512287
H -1.012045 4.664204 2.859342
H 0.848517 3.471554 1.791761
H -1.007787 5.616049 -2.954453
H 0.809811 4.358117 -4.048621
H 2.377485 3.022480 -2.700640
C 0.881926 -3.628182 0.581375
C 0.369010 -3.598080 1.855947
C -0.851168 -4.215638 2.159290
C -1.560202 -4.855598 1.182141
C -1.084632 -4.885763 -0.144950
C -1.817326 -5.512714 -1.174598
C -1.359483 -5.511308 -2.461301
C -0.147404 -4.877991 -2.775132
C 0.592222 -4.271349 -1.798705
C 0.152910 -4.263496 -0.458173
H 0.920376 -3.096052 2.639353
H -1.219958 -4.183004 3.175212
H -2.498291 -5.342549 1.411158
H -2.755401 -5.990389 -0.925797
H -1.928663 -5.988731 -3.246349
H 0.196414 -4.868865 -3.799822
H 1.513914 -3.768659 -2.050731
C -3.644493 1.111489 -0.223641
C -2.878305 0.222064 -1.045557
C -3.058510 -1.152697 -0.680535
C -4.217260 -1.314192 0.044524
C -5.102194 -0.163638 -0.041591
O -2.228488 -2.131331 -0.983753
C -4.432383 -2.555577 0.848668
H -5.499250 0.027794 -1.079232
H -5.455941 -2.650449 1.200996
H -4.169140 -3.408902 0.224260
H -3.745315 -2.572769 1.696103
O -2.276504 0.531506 -2.158301
C -2.016036 1.915030 -2.389394
C -3.288640 2.718659 -2.150388
H -1.216331 2.225105 -1.709722
H -1.666404 1.975951 -3.420799
C -3.722511 2.551918 -0.689629
H -4.066540 2.354413 -2.827473
H -3.041886 3.124634 -0.049277
H -4.727256 2.956467 -0.540779
H -3.393733 1.053334 0.869817
C -6.156127 0.043474 0.962817
C -7.417435 0.508863 0.562447
C -5.955637 -0.209401 2.325339
C -8.425298 0.728609 1.485070
H -7.601759 0.701468 -0.485149
C -6.965981 0.011110 3.246027
H -4.987734 -0.549046 2.662344
C -8.199649 0.490842 2.832208
H -9.385967 1.094745 1.153768
H -6.785700 -0.180531 4.293680
H -8.979008 0.679488 3.555277
H -3.101082 3.770550 -2.365060
103
Mode 0 Frame: * Frequency(6) -243.3300
C 6.792102 -3.079592 -1.146290
C 6.866030 -1.682681 -1.037700
C 5.793942 -0.963527 -0.585956
C 4.592675 -1.606215 -0.215648
C 4.504129 -3.016086 -0.368609
C 5.633239 -3.729173 -0.825466
C 3.457222 -0.894757 0.257061
C 2.279463 -1.573639 0.491424
C 2.176889 -2.972854 0.313030
C 3.287093 -3.670465 -0.089271
C 3.458677 0.569191 0.463144
C 4.342679 1.204324 1.376647
C 4.293564 2.617292 1.514545
C 3.348718 3.353390 0.772376
C 2.461270 2.731448 -0.067277
C 2.521993 1.325796 -0.214459
C 5.240823 0.481367 2.191964
C 6.077534 1.126496 3.060342
C 6.058220 2.525755 3.162740
C 5.178919 3.252983 2.410879
O 1.168357 -0.869739 0.890712
O 1.631706 0.719770 -1.060884
P 0.395219 -0.112902 -0.354147
O 0.000977 -1.101384 -1.411457
O -0.620177 0.780506 0.262011
H 7.651238 -3.633026 -1.496488
H 7.777936 -1.175440 -1.317868
H 5.856152 0.112618 -0.515670
H 5.557519 -4.803044 -0.925252
H 3.227925 -4.743362 -0.214475
H 3.317510 4.429156 0.881664
H 5.255091 -0.596727 2.128781
H 6.758195 0.558062 3.677483
H 6.732605 3.019395 3.847166
H 5.139782 4.330034 2.495661
H -1.321839 -1.713890 -1.207317
C 1.463631 3.496594 -0.842478
C 1.576302 3.557379 -2.210529
C 0.682887 4.318473 -2.976553
C -0.326780 5.012310 -2.370808
C -0.500833 4.948575 -0.971905
C -1.556134 5.628973 -0.326298
C -1.728765 5.532793 1.026222
C -0.855085 4.745819 1.793360
C 0.185398 4.085541 1.200794
C 0.399642 4.174346 -0.191154
H -2.229421 6.226605 -0.925474
H -2.540590 6.054400 1.512527
H -1.012032 4.664167 2.859258
H 0.847708 3.470590 1.791645
H -1.007097 5.617148 -2.954182
H 0.809559 4.358436 -4.048805
H 2.376585 3.021621 -2.701202
C 0.882045 -3.628613 0.581399
C 0.369200 -3.598242 1.855988
C -0.850975 -4.215799 2.159365
C -1.559979 -4.855848 1.182235
C -1.084669 -4.885728 -0.144992
C -1.817439 -5.512646 -1.174644
C -1.359623 -5.511243 -2.461382
C -0.147563 -4.877892 -2.775294
C 0.592040 -4.271146 -1.798919
C 0.152839 -4.263420 -0.458314
H 0.920719 -3.096504 2.639403
H -1.219706 -4.183364 3.175277
H -2.497795 -5.343212 1.411460
H -2.755494 -5.990362 -0.925799
H -1.928816 -5.988705 -3.246374
H 0.196189 -4.868891 -3.799982
H 1.513958 -3.768849 -2.051062
C -3.598267 1.144068 -0.232223
C -2.881890 0.235574 -1.045717
C -3.060466 -1.144989 -0.683019
C -4.227579 -1.319925 0.047740
C -5.138294 -0.216392 -0.037043
O -2.229013 -2.110120 -0.982370
C -4.414395 -2.560253 0.860109
H -5.470329 0.060497 -1.049700
H -5.433991 -2.666406 1.219496
H -4.147084 -3.412005 0.235268
H -3.721816 -2.566950 1.702471
O -2.278488 0.531934 -2.171615
C -2.010108 1.912972 -2.399902
C -3.275216 2.729077 -2.160562
H -1.209537 2.220326 -1.719957
H -1.659835 1.973161 -3.431220
C -3.690481 2.576572 -0.695318
H -4.062100 2.361347 -2.824291
H -3.013485 3.163065 -0.064785
H -4.699240 2.966611 -0.536649
H -3.454264 1.054614 0.850615
C -6.180292 0.009619 0.964136
C -7.432119 0.497545 0.564782
C -5.969725 -0.227699 2.327786
C -8.432160 0.733396 1.489882
H -7.616168 0.685812 -0.483448
C -6.971336 0.013156 3.250556
H -5.003046 -0.573133 2.661515
C -8.203446 0.497418 2.837071
H -9.389774 1.109450 1.161685
H -6.787441 -0.168607 4.299097
H -8.979276 0.694180 3.561574
H -3.083768 3.776286 -2.390608
103
Mode 0 Frame: * Frequency(6) -243.3300
C 6.792517 -3.079707 -1.146495
C 6.866352 -1.682774 -1.037866
C 5.794248 -0.963702 -0.586078
C 4.593216 -1.606807 -0.215863
C 4.504623 -3.016673 -0.368785
C 5.633821 -3.729569 -0.825715
C 3.457558 -0.895690 0.256848
C 2.280650 -1.575461 0.490899
C 2.177509 -2.974259 0.312887
C 3.287851 -3.671592 -0.089465
C 3.458046 0.568241 0.462580
C 4.342184 1.203691 1.376158
C 4.292710 2.616619 1.513785
C 3.347367 3.351617 0.771204
C 2.459701 2.729199 -0.068414
C 2.521262 1.323734 -0.215689
C 5.240503 0.481005 2.191564
C 6.077087 1.126500 3.059846
C 6.057476 2.525792 3.162027
C 5.178011 3.252759 2.410076
O 1.167982 -0.871913 0.889477
O 1.630333 0.713688 -1.063372
P 0.396457 -0.108929 -0.348082
O -0.007100 -1.103975 -1.406033
O -0.613974 0.783662 0.269363
H 7.651694 -3.632980 -1.496729
H 7.778163 -1.175467 -1.318040
H 5.856166 0.112403 -0.515695
H 5.558280 -4.803397 -0.925533
H 3.229027 -4.744428 -0.214694
H 3.315232 4.427325 0.880102
H 5.255046 -0.597061 2.128628
H 6.757864 0.558296 3.676996
H 6.731738 3.019679 3.846348
H 5.138567 4.329762 2.494650
H -1.276796 -1.668244 -1.211128
C 1.462530 3.495413 -0.843101
C 1.575605 3.556768 -2.211013
C 0.682821 4.318818 -2.976761
C -0.326234 5.013132 -2.370683
C -0.500232 4.949258 -0.971832