8
Mode 0 Frame: * (null), Energy   -1000.0000000
C -1.332224 -1.570736 -0.001735
H -1.453283 -2.643548 0.191056
H -2.293949 -1.154596 -0.325204
C -0.814983 -0.839382 1.264872
H -1.517410 -0.056741 1.575926
H -0.676803 -1.545601 2.092458
F -0.436272 -1.428293 -1.048956
F 0.407215 -0.235418 1.017364
8
Mode 0 Frame: * Frequency(6) -225.0900
C -1.315515 -1.600282 0.008507
H -1.352727 -2.679939 0.214197
H -2.315181 -1.258852 -0.299363
C -0.831597 -0.809807 1.254534
H -1.519650 0.014274 1.492589
H -0.753924 -1.475954 2.126850
F -0.447934 -1.407855 -1.056190
F 0.418819 -0.255876 1.024656
8
Mode 0 Frame: * Frequency(6) -225.0900
C -1.300617 -1.626626 0.017640
H -1.263068 -2.712386 0.234831
H -2.334112 -1.351810 -0.276322
C -0.846410 -0.783437 1.245316
H -1.521648 0.077593 1.418283
H -0.822689 -1.413854 2.157516
F -0.458332 -1.389631 -1.062640
F 0.429165 -0.274116 1.031158
8
Mode 0 Frame: * Frequency(6) -225.0900
C -1.289144 -1.646913 0.024673
H -1.194022 -2.737373 0.250721
H -2.348691 -1.423397 -0.258579
C -0.857818 -0.763129 1.238218
H -1.523186 0.126355 1.361060
H -0.875644 -1.366031 2.181131
F -0.466340 -1.375597 -1.067607
F 0.437133 -0.288164 1.036166
8
Mode 0 Frame: * Frequency(6) -225.0900
C -1.282339 -1.658946 0.028844
H -1.153070 -2.752193 0.260145
H -2.357337 -1.465855 -0.248055
C -0.864584 -0.751084 1.234007
H -1.524099 0.155276 1.327121
H -0.907051 -1.337668 2.195137
F -0.471089 -1.367274 -1.070552
F 0.441859 -0.296495 1.039136
8
Mode 0 Frame: * Frequency(6) -225.0900
C -1.280940 -1.661420 0.029701
H -1.144652 -2.755240 0.262082
H -2.359115 -1.474584 -0.245891
C -0.865975 -0.748608 1.233142
H -1.524286 0.161221 1.320143
H -0.913508 -1.331837 2.198017
F -0.472066 -1.365563 -1.071158
F 0.442830 -0.298208 1.039746
8
Mode 0 Frame: * Frequency(6) -225.0900
C -1.285098 -1.654066 0.027152
H -1.169678 -2.746183 0.256323
H -2.353831 -1.448637 -0.252323
C -0.861840 -0.755969 1.235715
H -1.523729 0.143547 1.340884
H -0.894314 -1.349171 2.189457
F -0.469163 -1.370649 -1.069358
F 0.439942 -0.293116 1.037931
8
Mode 0 Frame: * Frequency(6) -225.0900
C -1.294364 -1.637683 0.021473
H -1.225437 -2.726004 0.243491
H -2.342057 -1.390825 -0.266652
C -0.852627 -0.772369 1.241447
H -1.522486 0.104169 1.387096
H -0.851549 -1.387791 2.170386
F -0.462696 -1.381983 -1.065347
F 0.433508 -0.281772 1.033887
8
Mode 0 Frame: * Frequency(6) -225.0900
C -1.307732 -1.614045 0.013278
H -1.305887 -2.696890 0.224977
H -2.325071 -1.307415 -0.287326
C -0.839336 -0.796030 1.249718
H -1.520694 0.047353 1.453770
H -0.789848 -1.443512 2.142871
F -0.453366 -1.398334 -1.059559
F 0.424224 -0.265405 1.028053
8
Mode 0 Frame: * Frequency(6) -225.0900
C -1.323754 -1.585713 0.003457
H -1.402310 -2.661995 0.202787
H -2.304712 -1.207445 -0.312105
C -0.823405 -0.824390 1.259632
H -1.518546 -0.020743 1.533681
H -0.715897 -1.510296 2.109892
F -0.442184 -1.417933 -1.052623
F 0.413097 -0.245788 1.021061
8
Mode 0 Frame: * Frequency(6) -225.0900
C -1.340694 -1.555759 -0.006927
H -1.504256 -2.625101 0.179325
H -2.283186 -1.101747 -0.338303
C -0.806561 -0.854374 1.270112
H -1.516274 -0.092739 1.618171
H -0.637709 -1.580906 2.075024
F -0.430360 -1.438653 -1.045289
F 0.401333 -0.225048 1.013667
8
Mode 0 Frame: * Frequency(6) -225.0900
C -1.356716 -1.527427 -0.016748
H -1.600679 -2.590206 0.157135
H -2.262827 -1.001777 -0.363082
C -0.790630 -0.882734 1.280026
H -1.514126 -0.160835 1.698082
H -0.563758 -1.647690 2.042045
F -0.419178 -1.458252 -1.038353
F 0.390206 -0.205431 1.006675
8
Mode 0 Frame: * Frequency(6) -225.0900
C -1.370084 -1.503789 -0.024943
H -1.681129 -2.561092 0.138621
H -2.245841 -0.918367 -0.383756
C -0.777339 -0.906395 1.288297
H -1.512334 -0.217651 1.764756
H -0.502057 -1.703411 2.014530
F -0.409848 -1.474603 -1.032565
F 0.380922 -0.189064 1.000841
8
Mode 0 Frame: * Frequency(6) -225.0900
C -1.379350 -1.487406 -0.030622
H -1.736888 -2.540913 0.125789
H -2.234067 -0.860555 -0.398085
C -0.768126 -0.922795 1.294029
H -1.511091 -0.257029 1.810968
H -0.459292 -1.742031 1.995459
F -0.403381 -1.485937 -1.028554
F 0.374488 -0.177720 0.996797
8
Mode 0 Frame: * Frequency(6) -225.0900
C -1.383508 -1.480052 -0.033171
H -1.761914 -2.531856 0.120030
H -2.228783 -0.834608 -0.404517
C -0.763991 -0.930156 1.296602
H -1.510534 -0.274703 1.831709
H -0.440098 -1.759365 1.986899
F -0.400478 -1.491023 -1.026754
F 0.371600 -0.172628 0.994982
8
Mode 0 Frame: * Frequency(6) -225.0900
C -1.382109 -1.482526 -0.032314
H -1.753496 -2.534903 0.121967
H -2.230561 -0.843337 -0.402353
C -0.765382 -0.927680 1.295737
H -1.510721 -0.268758 1.824731
H -0.446555 -1.753534 1.989779
F -0.401455 -1.489312 -1.027360
F 0.372571 -0.174341 0.995592
8
Mode 0 Frame: * Frequency(6) -225.0900
C -1.375304 -1.494559 -0.028143
H -1.712544 -2.549723 0.131391
H -2.239207 -0.885795 -0.391829
C -0.772148 -0.915635 1.291526
H -1.511634 -0.239837 1.790792
H -0.477962 -1.725171 2.003785
F -0.406204 -1.480989 -1.030305
F 0.377297 -0.182672 0.998562
8
Mode 0 Frame: * Frequency(6) -225.0900
C -1.363831 -1.514846 -0.021110
H -1.643498 -2.574710 0.147281
H -2.253786 -0.957382 -0.374086
C -0.783556 -0.895327 1.284428
H -1.513172 -0.191075 1.733569
H -0.530917 -1.677348 2.027400
F -0.414212 -1.466955 -1.035272
F 0.385265 -0.196720 1.003570
8
Mode 0 Frame: * Frequency(6) -225.0900
C -1.348933 -1.541190 -0.011977
H -1.553839 -2.607157 0.167915
H -2.272717 -1.050340 -0.351045
C -0.798369 -0.868957 1.275210
H -1.515170 -0.127756 1.659263
H -0.599682 -1.615248 2.058066
F -0.424610 -1.448731 -1.041722
F 0.395611 -0.214960 1.010072
8
Mode 0 Frame: * Frequency(6) -225.0900
C -1.332224 -1.570736 -0.001735
H -1.453283 -2.643548 0.191056
H -2.293949 -1.154596 -0.325204
C -0.814983 -0.839382 1.264872
H -1.517410 -0.056741 1.575926
H -0.676803 -1.545601 2.092458
F -0.436272 -1.428293 -1.048956
F 0.407215 -0.235418 1.017364
