21
Mode 0 Frame: * (null), Energy   -1000.0000000
C 0.015112 -0.638661 -0.935953
N 1.028282 -0.270963 0.025582
C 0.156391 0.159634 1.093664
C -0.731826 -1.093000 1.307366
C -0.835016 -1.659063 -0.135345
C -0.706197 1.237962 0.388842
C -0.809241 0.669718 -1.052998
C 2.450598 -0.310836 -0.036782
H 0.421039 -1.017366 -1.885536
H 0.690246 0.507105 1.990516
H -0.230962 -1.805517 1.981166
H -1.710934 -0.847146 1.748556
H -0.389383 -2.663657 -0.203247
H -1.871769 -1.726577 -0.501816
H -0.187176 2.209077 0.399499
H -1.686532 1.377406 0.871775
H -0.344877 1.349207 -1.784491
H -1.847224 0.489007 -1.374979
H 2.927908 0.685173 0.071657
H 2.909925 -0.973555 0.725728
H 2.755585 -0.701994 -1.020220
21
Mode 0 Frame: * Frequency(6) -246.9100
C 0.015042 -0.647020 -0.932633
N 1.027697 -0.325340 0.047049
C 0.156242 0.147407 1.098505
C -0.750345 -1.090823 1.307134
C -0.852268 -1.655713 -0.137604
C -0.687709 1.239351 0.387679
C -0.791848 0.673390 -1.053502
C 2.451168 -0.257298 -0.057963
H 0.420929 -1.031086 -1.880095
H 0.690002 0.487748 1.998173
H -0.260377 -1.809148 1.982551
H -1.729424 -0.834149 1.742515
H -0.415197 -2.664065 -0.203004
H -1.888218 -1.712728 -0.508441
H -0.158062 2.204988 0.401263
H -1.667865 1.390469 0.867456
H -0.318922 1.348257 -1.784141
H -1.830363 0.503354 -1.379580
H 2.874668 0.773415 -0.018003
H 2.965684 -0.848866 0.731249
H 2.755639 -0.690234 -1.024948
21
Mode 0 Frame: * Frequency(6) -246.9100
C 0.014980 -0.654474 -0.929672
N 1.027174 -0.373824 0.066190
C 0.156109 0.136505 1.102821
C -0.766858 -1.088882 1.306928
C -0.867650 -1.652725 -0.139619
C -0.671225 1.240589 0.386643
C -0.776340 0.676665 -1.053951
C 2.451677 -0.209562 -0.076849
H 0.420830 -1.043319 -1.875243
H 0.689784 0.470489 2.005000
H -0.286604 -1.812386 1.983786
H -1.745911 -0.822561 1.737128
H -0.438214 -2.664428 -0.202788
H -1.902885 -1.700380 -0.514348
H -0.132103 2.201343 0.402835
H -1.651221 1.402116 0.863605
H -0.295780 1.347411 -1.783829
H -1.815329 0.516146 -1.383682
H 2.827197 0.852094 -0.097947
H 3.015400 -0.737689 0.736172
H 2.755688 -0.679749 -1.029164
21
Mode 0 Frame: * Frequency(6) -246.9100
C 0.014933 -0.660214 -0.927392
N 1.026772 -0.411161 0.080930
C 0.156006 0.128110 1.106144
C -0.779574 -1.087387 1.306769
C -0.879496 -1.650425 -0.141170
C -0.658530 1.241543 0.385845
C -0.764398 0.679186 -1.054297
C 2.452069 -0.172801 -0.091393
H 0.420754 -1.052740 -1.871507
H 0.689616 0.457198 2.010257
H -0.306802 -1.814879 1.984737
H -1.758607 -0.813637 1.732980
H -0.455940 -2.664708 -0.202621
H -1.914180 -1.690871 -0.518897
H -0.112111 2.198535 0.404046
H -1.638404 1.411086 0.860639
H -0.277958 1.346759 -1.783589
H -1.803751 0.525998 -1.386841
H 2.790639 0.912685 -0.159512
H 3.053687 -0.652072 0.739964
H 2.755725 -0.671675 -1.032410
21
Mode 0 Frame: * Frequency(6) -246.9100
C 0.014904 -0.663618 -0.926040
N 1.026534 -0.433306 0.089673
C 0.155945 0.123130 1.108116
C -0.787116 -1.086500 1.306675
C -0.886522 -1.649060 -0.142090
C -0.651001 1.242109 0.385371
C -0.757315 0.680682 -1.054502
C 2.452301 -0.150998 -0.100020
H 0.420709 -1.058327 -1.869291
H 0.689517 0.449315 2.013375
H -0.318781 -1.816358 1.985301
H -1.766137 -0.808344 1.730520
H -0.466453 -2.664874 -0.202522
H -1.920879 -1.685231 -0.521595
H -0.100255 2.196870 0.404765
H -1.630802 1.416405 0.858880
H -0.267388 1.346372 -1.783446
H -1.796884 0.531840 -1.388715
H 2.768957 0.948621 -0.196026
H 3.076394 -0.601293 0.742212
H 2.755747 -0.666886 -1.034336
21
Mode 0 Frame: * Frequency(6) -246.9100
C 0.014899 -0.664318 -0.925762
N 1.026485 -0.437858 0.091470
C 0.155933 0.122107 1.108521
C -0.788666 -1.086318 1.306655
C -0.887967 -1.648780 -0.142279
C -0.649453 1.242225 0.385274
C -0.755859 0.680989 -1.054545
C 2.452349 -0.146516 -0.101793
H 0.420700 -1.059476 -1.868835
H 0.689496 0.447695 2.014016
H -0.321244 -1.816662 1.985417
H -1.767685 -0.807256 1.730014
H -0.468614 -2.664908 -0.202502
H -1.922256 -1.684072 -0.522149
H -0.097817 2.196528 0.404912
H -1.629239 1.417499 0.858518
H -0.265215 1.346292 -1.783417
H -1.795473 0.533041 -1.389100
H 2.764500 0.956009 -0.203532
H 3.081062 -0.590854 0.742674
H 2.755752 -0.665901 -1.034732
21
Mode 0 Frame: * Frequency(6) -246.9100
C 0.014916 -0.662237 -0.926589
N 1.026631 -0.424325 0.086127
C 0.155970 0.125150 1.107316
C -0.784057 -1.086859 1.306713
C -0.883673 -1.649613 -0.141717
C -0.654055 1.241879 0.385563
C -0.760187 0.680075 -1.054419
C 2.452207 -0.159840 -0.096521
H 0.420727 -1.056061 -1.870189
H 0.689557 0.452512 2.012111
H -0.313923 -1.815758 1.985072
H -1.763083 -0.810491 1.731518
H -0.462189 -2.664806 -0.202562
H -1.918162 -1.687518 -0.520500
H -0.105063 2.197545 0.404473
H -1.633885 1.414248 0.859593
H -0.271675 1.346529 -1.783504
H -1.799669 0.529471 -1.387955
H 2.777750 0.934047 -0.181218
H 3.067185 -0.621886 0.741300
H 2.755738 -0.668828 -1.033555
21
Mode 0 Frame: * Frequency(6) -246.9100
C 0.014954 -0.657602 -0.928430
N 1.026955 -0.394173 0.074223
C 0.156053 0.131930 1.104632
C -0.773788 -1.088067 1.306841
C -0.874107 -1.651471 -0.140464
C -0.664306 1.241109 0.386208
C -0.769832 0.678039 -1.054140
C 2.451891 -0.189527 -0.084776
H 0.420789 -1.048453 -1.873207
H 0.689692 0.463245 2.007865
H -0.297612 -1.813745 1.984304
H -1.752830 -0.817697 1.734868
H -0.447875 -2.664580 -0.202697
H -1.909041 -1.695198 -0.516827
H -0.121207 2.199813 0.403495
H -1.644236 1.407004 0.861988
H -0.286067 1.347055 -1.783698
H -1.809019 0.521515 -1.385404
H 2.807273 0.885116 -0.131500
H 3.036266 -0.691027 0.738239
H 2.755708 -0.675349 -1.030933
21
Mode 0 Frame: * Frequency(6) -246.9100
C 0.015010 -0.650914 -0.931086
N 1.027424 -0.350669 0.057049
C 0.156172 0.141712 1.100759
C -0.758972 -1.089809 1.307027
C -0.860304 -1.654152 -0.138657
C -0.679098 1.239998 0.387138
C -0.783747 0.675101 -1.053737
C 2.451434 -0.232360 -0.067830
H 0.420877 -1.037477 -1.877560
H 0.689888 0.478732 2.001739
H -0.274079 -1.810840 1.983196
H -1.738037 -0.828095 1.739701
H -0.427222 -2.664254 -0.202891
H -1.895880 -1.706277 -0.511527
H -0.144500 2.203084 0.402084
H -1.659170 1.396554 0.865444
H -0.306832 1.347815 -1.783978
H -1.822509 0.510037 -1.381723
H 2.849868 0.814518 -0.059768
H 2.991657 -0.790785 0.733821
H 2.755665 -0.684757 -1.027150
21
Mode 0 Frame: * Frequency(6) -246.9100
C 0.015077 -0.642898 -0.934270
N 1.027985 -0.298527 0.036464
C 0.156315 0.153436 1.096118
C -0.741214 -1.091896 1.307249
C -0.843761 -1.657365 -0.136490
C -0.696825 1.238666 0.388253
C -0.800424 0.671580 -1.053253
C 2.450887 -0.283697 -0.047519
H 0.420983 -1.024321 -1.882778
H 0.690122 0.497293 1.994397
H -0.245873 -1.807358 1.981868
H -1.720307 -0.840558 1.745494
H -0.402469 -2.663864 -0.203124
H -1.880107 -1.719557 -0.505174
H -0.172418 2.207004 0.400393
H -1.677070 1.384028 0.869586
H -0.331720 1.348726 -1.784314
H -1.838677 0.496280 -1.377311
H 2.900920 0.729904 0.026207
H 2.938190 -0.910349 0.728527
H 2.755613 -0.696033 -1.022617
21
Mode 0 Frame: * Frequency(6) -246.9100
C 0.015147 -0.634424 -0.937636
N 1.028579 -0.243399 0.014700
C 0.156467 0.165832 1.091210
C -0.722438 -1.094104 1.307483
C -0.826271 -1.660761 -0.134200
C -0.715569 1.237258 0.389431
C -0.818058 0.667856 -1.052743
C 2.450309 -0.337975 -0.026045
H 0.421095 -1.010411 -1.888294
H 0.690370 0.516917 1.986635
H -0.216051 -1.803676 1.980464
H -1.701561 -0.853734 1.751618
H -0.376297 -2.663450 -0.203370
H -1.863431 -1.733597 -0.498458
H -0.201934 2.211150 0.398605
H -1.695994 1.370784 0.873964
H -0.358034 1.349688 -1.784668
H -1.855771 0.481734 -1.372647
H 2.954896 0.640442 0.117107
H 2.881660 -1.036761 0.722929
H 2.755557 -0.707955 -1.017823
21
Mode 0 Frame: * Frequency(6) -246.9100
C 0.015214 -0.626408 -0.940820
N 1.029140 -0.191257 -0.005885
C 0.156610 0.177556 1.086569
C -0.704680 -1.096191 1.307705
C -0.809728 -1.663974 -0.132033
C -0.733296 1.235926 0.390546
C -0.834735 0.664335 -1.052259
C 2.449762 -0.389312 -0.005734
H 0.421201 -0.997255 -1.893512
H 0.690604 0.535478 1.979293
H -0.187845 -1.800194 1.979136
H -1.683831 -0.866197 1.757411
H -0.351544 -2.663060 -0.203603
H -1.847658 -1.746877 -0.492105
H -0.229852 2.215070 0.396914
H -1.713894 1.358258 0.878106
H -0.382922 1.350599 -1.785004
H -1.871939 0.467977 -1.368235
H 3.005948 0.555828 0.203082
H 2.828193 -1.156325 0.717635
H 2.755505 -0.719231 -1.013290
21
Mode 0 Frame: * Frequency(6) -246.9100
C 0.015270 -0.619720 -0.943476
N 1.029609 -0.147753 -0.023059
C 0.156729 0.187338 1.082696
C -0.689864 -1.097933 1.307891
C -0.795925 -1.666655 -0.130226
C -0.748088 1.234815 0.391476
C -0.848650 0.661397 -1.051856
C 2.449305 -0.432145 0.011212
H 0.421289 -0.986279 -1.897865
H 0.690800 0.550965 1.973167
H -0.164312 -1.797289 1.978028
H -1.669038 -0.876595 1.762244
H -0.330891 -2.662734 -0.203797
H -1.834497 -1.757956 -0.486805
H -0.253145 2.218341 0.395503
H -1.728828 1.347808 0.881562
H -0.403687 1.351359 -1.785284
H -1.885429 0.456499 -1.364554
H 3.048543 0.485230 0.274814
H 2.783584 -1.256083 0.713217
H 2.755462 -0.728639 -1.009507
21
Mode 0 Frame: * Frequency(6) -246.9100
C 0.015308 -0.615085 -0.945317
N 1.029933 -0.117601 -0.034963
C 0.156812 0.194118 1.080012
C -0.679595 -1.099141 1.308019
C -0.786359 -1.668513 -0.128973
C -0.758339 1.234045 0.392121
C -0.858295 0.659361 -1.051577
C 2.448989 -0.461832 0.022957
H 0.421351 -0.978671 -1.900883
H 0.690935 0.561698 1.968921
H -0.148001 -1.795276 1.977260
H -1.658785 -0.883801 1.765594
H -0.316577 -2.662508 -0.203932
H -1.825376 -1.765636 -0.483132
H -0.269289 2.220609 0.394525
H -1.739179 1.340564 0.883957
H -0.418079 1.351885 -1.785478
H -1.894779 0.448543 -1.362003
H 3.078066 0.436299 0.324532
H 2.752665 -1.325224 0.710156
H 2.755432 -0.735160 -1.006885
21
Mode 0 Frame: * Frequency(6) -246.9100
C 0.015325 -0.613004 -0.946144
N 1.030079 -0.104068 -0.040306
C 0.156849 0.197161 1.078807
C -0.674986 -1.099682 1.308077
C -0.782065 -1.669346 -0.128411
C -0.762941 1.233699 0.392410
C -0.862623 0.658447 -1.051451
C 2.448847 -0.475156 0.028229
H 0.421378 -0.975256 -1.902237
H 0.690996 0.566515 1.967016
H -0.140680 -1.794372 1.976915
H -1.654183 -0.887036 1.767098
H -0.310152 -2.662406 -0.203992
H -1.821282 -1.769082 -0.481483
H -0.276535 2.221626 0.394086
H -1.743825 1.337313 0.885032
H -0.424539 1.352122 -1.785565
H -1.898975 0.444973 -1.360858
H 3.091316 0.414337 0.346846
H 2.738788 -1.356256 0.708782
H 2.755418 -0.738087 -1.005708
21
Mode 0 Frame: * Frequency(6) -246.9100
C 0.015320 -0.613704 -0.945866
N 1.030030 -0.108620 -0.038509
C 0.156837 0.196138 1.079212
C -0.676536 -1.099500 1.308057
C -0.783510 -1.669066 -0.128600
C -0.761393 1.233815 0.392313
C -0.861167 0.658754 -1.051494
C 2.448895 -0.470674 0.026456
H 0.421369 -0.976405 -1.901781
H 0.690975 0.564895 1.967657
H -0.143143 -1.794676 1.977031
H -1.655731 -0.885948 1.766592
H -0.312313 -2.662440 -0.203972
H -1.822659 -1.767923 -0.482037
H -0.274097 2.221284 0.394233
H -1.742262 1.338407 0.884670
H -0.422366 1.352042 -1.785536
H -1.897564 0.446174 -1.361243
H 3.086859 0.421725 0.339340
H 2.743456 -1.345817 0.709244
H 2.755423 -0.737102 -1.006104
21
Mode 0 Frame: * Frequency(6) -246.9100
C 0.015291 -0.617108 -0.944514
N 1.029792 -0.130765 -0.029766
C 0.156776 0.191158 1.081184
C -0.684078 -1.098613 1.307963
C -0.790536 -1.667701 -0.129520
C -0.753864 1.234381 0.391839
C -0.854084 0.660250 -1.051699
C 2.449127 -0.448871 0.017829
H 0.421324 -0.981992 -1.899565
H 0.690876 0.557012 1.970775
H -0.155122 -1.796155 1.977595
H -1.663261 -0.880655 1.764132
H -0.322826 -2.662606 -0.203873
H -1.829358 -1.762283 -0.484735
H -0.262241 2.219619 0.394952
H -1.734660 1.343726 0.882911
H -0.411796 1.351655 -1.785393
H -1.890697 0.452016 -1.363117
H 3.065177 0.457661 0.302826
H 2.766163 -1.295038 0.711492
H 2.755445 -0.732313 -1.008030
21
Mode 0 Frame: * Frequency(6) -246.9100
C 0.015244 -0.622848 -0.942234
N 1.029390 -0.168102 -0.015026
C 0.156673 0.182763 1.084507
C -0.696794 -1.097118 1.307804
C -0.802382 -1.665401 -0.131071
C -0.741169 1.235335 0.391041
C -0.842142 0.662771 -1.052045
C 2.449519 -0.412110 0.003285
H 0.421248 -0.991413 -1.895829
H 0.690708 0.543721 1.976032
H -0.175320 -1.798648 1.978546
H -1.675957 -0.871731 1.759984
H -0.340552 -2.662886 -0.203706
H -1.840653 -1.752774 -0.489284
H -0.242249 2.216811 0.396163
H -1.721843 1.352696 0.879945
H -0.393974 1.351003 -1.785153
H -1.879119 0.461868 -1.366276
H 3.028619 0.518252 0.241261
H 2.804450 -1.209421 0.715284
H 2.755482 -0.724239 -1.011276
21
Mode 0 Frame: * Frequency(6) -246.9100
C 0.015182 -0.630302 -0.939273
N 1.028867 -0.216586 0.004115
C 0.156540 0.171861 1.088823
C -0.713307 -1.095177 1.307598
C -0.817764 -1.662413 -0.133086
C -0.724685 1.236573 0.390005
C -0.826634 0.666046 -1.052494
C 2.450028 -0.364374 -0.015601
H 0.421149 -1.003646 -1.890977
H 0.690490 0.526462 1.982859
H -0.201547 -1.801886 1.979781
H -1.692444 -0.860143 1.754597
H -0.363569 -2.663249 -0.203490
H -1.855320 -1.740426 -0.495191
H -0.216290 2.213166 0.397735
H -1.705199 1.364343 0.876094
H -0.370832 1.350157 -1.784841
H -1.864085 0.474660 -1.370378
H 2.981148 0.596931 0.161317
H 2.854166 -1.098244 0.720207
H 2.755531 -0.713754 -1.015492
21
Mode 0 Frame: * Frequency(6) -246.9100
C 0.015112 -0.638661 -0.935953
N 1.028282 -0.270963 0.025582
C 0.156391 0.159634 1.093664
C -0.731826 -1.093000 1.307366
C -0.835016 -1.659063 -0.135345
C -0.706197 1.237962 0.388842
C -0.809241 0.669718 -1.052998
C 2.450598 -0.310836 -0.036782
H 0.421039 -1.017366 -1.885536
H 0.690246 0.507105 1.990516
H -0.230962 -1.805517 1.981166
H -1.710934 -0.847146 1.748556
H -0.389383 -2.663657 -0.203247
H -1.871769 -1.726577 -0.501816
H -0.187176 2.209077 0.399499
H -1.686532 1.377406 0.871775
H -0.344877 1.349207 -1.784491
H -1.847224 0.489007 -1.374979
H 2.927908 0.685173 0.071657
H 2.909925 -0.973555 0.725728
H 2.755585 -0.701994 -1.020220
