 Entering Gaussian System, Link 0=g16
 Input=Ru-macho-Oformamide-TS_1CO-cis.com
 Output=Ru-macho-Oformamide-TS_1CO-cis.log
 Initial command:
 /usr/local/Gaussian/g16/l1.exe "/tmp/mb105/4083/Gau-58593.inp" -scrdir="/tmp/mb105/4083/"
 Entering Link 1 = /usr/local/Gaussian/g16/l1.exe PID=     58595.

 Copyright (c) 1988-2019, Gaussian, Inc.  All Rights Reserved.

 This is part of the Gaussian(R) 16 program.  It is based on
 the Gaussian(R) 09 system (copyright 2009, Gaussian, Inc.),
 the Gaussian(R) 03 system (copyright 2003, Gaussian, Inc.),
 the Gaussian(R) 98 system (copyright 1998, Gaussian, Inc.),
 the Gaussian(R) 94 system (copyright 1995, Gaussian, Inc.),
 the Gaussian 92(TM) system (copyright 1992, Gaussian, Inc.),
 the Gaussian 90(TM) system (copyright 1990, Gaussian, Inc.),
 the Gaussian 88(TM) system (copyright 1988, Gaussian, Inc.),
 the Gaussian 86(TM) system (copyright 1986, Carnegie Mellon
 University), and the Gaussian 82(TM) system (copyright 1983,
 Carnegie Mellon University). Gaussian is a federally registered
 trademark of Gaussian, Inc.

 This software contains proprietary and confidential information,
 including trade secrets, belonging to Gaussian, Inc.

 This software is provided under written license and may be
 used, copied, transmitted, or stored only in accord with that
 written license.

 The following legend is applicable only to US Government
 contracts under FAR:

                    RESTRICTED RIGHTS LEGEND

 Use, reproduction and disclosure by the US Government is
 subject to restrictions as set forth in subparagraphs (a)
 and (c) of the Commercial Computer Software - Restricted
 Rights clause in FAR 52.227-19.

 Gaussian, Inc.
 340 Quinnipiac St., Bldg. 40, Wallingford CT 06492


 ---------------------------------------------------------------
 Warning -- This program may not be used in any manner that
 competes with the business of Gaussian, Inc. or will provide
 assistance to any competitor of Gaussian, Inc.  The licensee
 of this program is prohibited from giving any competitor of
 Gaussian, Inc. access to this program.  By using this program,
 the user acknowledges that Gaussian, Inc. is engaged in the
 business of creating and licensing software in the field of
 computational chemistry and represents and warrants to the
 licensee that it is not a competitor of Gaussian, Inc. and that
 it will not use this program in any manner prohibited above.
 ---------------------------------------------------------------


 Cite this work as:
 Gaussian 16, Revision C.01,
 M. J. Frisch, G. W. Trucks, H. B. Schlegel, G. E. Scuseria,
 M. A. Robb, J. R. Cheeseman, G. Scalmani, V. Barone,
 G. A. Petersson, H. Nakatsuji, X. Li, M. Caricato, A. V. Marenich,
 J. Bloino, B. G. Janesko, R. Gomperts, B. Mennucci, H. P. Hratchian,
 J. V. Ortiz, A. F. Izmaylov, J. L. Sonnenberg, D. Williams-Young,
 F. Ding, F. Lipparini, F. Egidi, J. Goings, B. Peng, A. Petrone,
 T. Henderson, D. Ranasinghe, V. G. Zakrzewski, J. Gao, N. Rega,
 G. Zheng, W. Liang, M. Hada, M. Ehara, K. Toyota, R. Fukuda,
 J. Hasegawa, M. Ishida, T. Nakajima, Y. Honda, O. Kitao, H. Nakai,
 T. Vreven, K. Throssell, J. A. Montgomery, Jr., J. E. Peralta,
 F. Ogliaro, M. J. Bearpark, J. J. Heyd, E. N. Brothers, K. N. Kudin,
 V. N. Staroverov, T. A. Keith, R. Kobayashi, J. Normand,
 K. Raghavachari, A. P. Rendell, J. C. Burant, S. S. Iyengar,
 J. Tomasi, M. Cossi, J. M. Millam, M. Klene, C. Adamo, R. Cammi,
 J. W. Ochterski, R. L. Martin, K. Morokuma, O. Farkas,
 J. B. Foresman, and D. J. Fox, Gaussian, Inc., Wallingford CT, 2019.

 ******************************************
 Gaussian 16:  ES64L-G16RevC.01  3-Jul-2019
                 2-Mar-2024
 ******************************************
 %Nproc=16
 Will use up to   16 processors via shared memory.
 %mem=8GB
 %chk=Ru-macho-Oformamide-TS_1CO-cis.chk
 ------------------------------------------------------------
 #P RBP86/gen/auto freq scrf=(iefpcm,solvent=THF) pseudo=read
 ------------------------------------------------------------
 1/10=4,30=1,38=1/1,3;
 2/12=2,17=6,18=5,40=1/2;
 3/5=7,11=2,16=1,17=8,25=1,30=1,70=2201,71=2,72=20,74=404,82=28,116=1,140=1/1,2,3;
 4//1;
 5/5=2,38=5,53=20,98=1/2;
 8/6=4,10=90,11=11/1;
 11/6=1,8=1,9=11,15=111,16=1/1,2,10;
 10/6=1/2;
 6/7=2,8=2,9=2,10=2,28=1/1;
 7/8=1,10=1,25=1/1,2,3,16;
 1/10=4,30=1/3;
 99//99;
 Leave Link    1 at Sat Mar  2 07:34:36 2024, MaxMem=  1073741824 cpu:               0.6 elap:               0.1
 (Enter /usr/local/Gaussian/g16/l101.exe)
 ----------------------------------------------------------------------
 TS search from Ru-Macho acyl complex, Ru[C(=O)-NHMe]-N(H), to CO compl
 ex +NH3, acyl placed into "wide Ph-Ru-Ph angle", CO cis restart with n
 ew preopt from #39
 ----------------------------------------------------------------------
 Symbolic Z-matrix:
 Charge =  0 Multiplicity = 1
 44                   0    -0.00638  -0.09376   0.05876
 15                   0    -2.30863   0.16545   0.36762
 15                   0     2.29928   0.11237   0.37461
 7                    0    -0.01281  -0.15833   2.2599
 8                    0     0.03405   0.17366  -2.95502
 6                    0    -3.13787   1.78174  -0.04617
 6                    0     1.19576   0.37982   2.89254
 1                    0     1.2251    0.10822   3.97896
 1                    0     1.19137   1.50163   2.86265
 6                    0    -2.38175   2.87743  -0.51125
 1                    0    -1.29258   2.7554   -0.62938
 6                    0     3.5553   -1.03982  -0.35905
 6                    0    -3.50078  -1.05856  -0.35364
 6                    0     3.41386   2.69702   0.97792
 1                    0     3.27409   2.46502   2.04471
 6                    0    -4.50965  -1.69645   0.40361
 1                    0    -4.6289   -1.47981   1.47646
 6                    0     3.14818  -2.07311  -1.22919
 1                    0     2.08183  -2.18908  -1.4743
 6                    0     2.47052  -0.13422   2.21749
 1                    0     2.57538  -1.23119   2.35743
 1                    0     3.38772   0.33613   2.62773
 6                    0    -2.49055  -0.00427   2.2233
 1                    0    -3.37185   0.55365   2.59991
 1                    0    -2.65404  -1.08063   2.44145
 6                    0     3.06246   1.75721  -0.01473
 6                    0    -1.18753   0.47953   2.86635
 1                    0    -1.12636   1.59666   2.77804
 1                    0    -1.22825   0.2651    3.96506
 6                    0     4.09989  -2.95639  -1.77418
 1                    0     3.77167  -3.7575   -2.45547
 6                    0     4.92806  -0.89819  -0.04626
 1                    0     5.26449  -0.0844    0.61677
 6                    0    -5.15961   3.15468  -0.17297
 1                    0    -6.24865   3.25703  -0.04095
 6                    0    -4.53589   1.92937   0.11539
 1                    0    -5.14858   1.08089   0.4605
 6                    0     0.01527   0.04379  -1.78027
 6                    0    -3.38384  -1.36427  -1.72976
 1                    0    -2.59362  -0.88789  -2.33106
 6                    0    -3.00966   4.10239  -0.805
 1                    0    -2.40694   4.94927  -1.17041
 6                    0     3.94259   3.95121   0.6172
 1                    0     4.21187   4.67371   1.4042
 6                    0     5.87349  -1.78589  -0.58556
 1                    0     6.93961  -1.66946  -0.33303
 6                    0     3.25034   2.09703  -1.37513
 1                    0     2.97829   1.37791  -2.16497
 6                    0    -4.39752   4.2447   -0.63507
 1                    0    -4.88875   5.20344  -0.86596
 6                    0     5.46066  -2.81664  -1.45213
 1                    0     6.20403  -3.50863  -1.87912
 6                    0    -5.38197  -2.61916  -0.2044
 1                    0    -6.16234  -3.10919   0.39958
 6                    0     4.12726   4.28004  -0.73644
 1                    0     4.54114   5.26163  -1.01677
 6                    0    -4.25997  -2.27996  -2.33538
 1                    0    -4.15395  -2.50768  -3.40791
 6                    0    -5.26077  -2.91182  -1.57371
 1                    0    -5.94362  -3.63474  -2.04752
 6                    0     3.77985   3.34752  -1.73259
 1                    0     3.92112   3.59576  -2.79662
 1                    0     0.07556   1.56294   0.25108
 8                    0    -0.13722  -3.09194  -0.70139
 6                    0    -0.12091  -2.16155   0.06969
 7                    0    -0.24435  -2.7239    1.70789
 1                    0    -0.10791  -1.70389   2.20735
 1                    0    -1.22151  -3.03888   1.81144
 6                    0     0.68767  -3.80836   2.03038
 1                    0     1.72542  -3.41993   2.01188
 1                    0     0.48786  -4.23285   3.03571
 1                    0     0.61053  -4.61784   1.27429

 ITRead=  0  0  0  0  0  0  0  0  0  0  0  0  0  0  0  0  0  0  0  0
 ITRead=  0  0  0  0  0  0  0  0  0  0  0  0  0  0  0  0  0  0  0  0
 ITRead=  0  0  0  0  0  0  0  0  0  0  0  0  0  0  0  0  0  0  0  0
 ITRead=  0  0  0  0  0  0  0  0  0  0  0  0
 MicOpt= -1 -1 -1 -1 -1 -1 -1 -1 -1 -1 -1 -1 -1 -1 -1 -1 -1 -1 -1 -1
 MicOpt= -1 -1 -1 -1 -1 -1 -1 -1 -1 -1 -1 -1 -1 -1 -1 -1 -1 -1 -1 -1
 MicOpt= -1 -1 -1 -1 -1 -1 -1 -1 -1 -1 -1 -1 -1 -1 -1 -1 -1 -1 -1 -1
 MicOpt= -1 -1 -1 -1 -1 -1 -1 -1 -1 -1 -1 -1
 NAtoms=     72 NQM=       72 NQMF=       0 NMMI=      0 NMMIF=      0
                NMic=       0 NMicF=      0.
                    Isotopes and Nuclear Properties:
 (Nuclear quadrupole moments (NQMom) in fm**2, nuclear magnetic moments (NMagM)
  in nuclear magnetons)

  Atom         1           2           3           4           5           6           7           8           9          10
 IAtWgt=         102          31          31          14          16          12          12           1           1          12
 AtmWgt= 101.9037000  30.9737634  30.9737634  14.0030740  15.9949146  12.0000000  12.0000000   1.0078250   1.0078250  12.0000000
 NucSpn=           0           1           1           2           0           0           0           1           1           0
 AtZEff=   0.0000000   0.0000000   0.0000000   0.0000000   0.0000000   0.0000000   0.0000000   0.0000000   0.0000000   0.0000000
 NQMom=    0.0000000   0.0000000   0.0000000   2.0440000   0.0000000   0.0000000   0.0000000   0.0000000   0.0000000   0.0000000
 NMagM=    0.0000000   1.1316000   1.1316000   0.4037610   0.0000000   0.0000000   0.0000000   2.7928460   2.7928460   0.0000000
 AtZNuc=  44.0000000  15.0000000  15.0000000   7.0000000   8.0000000   6.0000000   6.0000000   1.0000000   1.0000000   6.0000000

  Atom        11          12          13          14          15          16          17          18          19          20
 IAtWgt=           1          12          12          12           1          12           1          12           1          12
 AtmWgt=   1.0078250  12.0000000  12.0000000  12.0000000   1.0078250  12.0000000   1.0078250  12.0000000   1.0078250  12.0000000
 NucSpn=           1           0           0           0           1           0           1           0           1           0
 AtZEff=   0.0000000   0.0000000   0.0000000   0.0000000   0.0000000   0.0000000   0.0000000   0.0000000   0.0000000   0.0000000
 NQMom=    0.0000000   0.0000000   0.0000000   0.0000000   0.0000000   0.0000000   0.0000000   0.0000000   0.0000000   0.0000000
 NMagM=    2.7928460   0.0000000   0.0000000   0.0000000   2.7928460   0.0000000   2.7928460   0.0000000   2.7928460   0.0000000
 AtZNuc=   1.0000000   6.0000000   6.0000000   6.0000000   1.0000000   6.0000000   1.0000000   6.0000000   1.0000000   6.0000000

  Atom        21          22          23          24          25          26          27          28          29          30
 IAtWgt=           1           1          12           1           1          12          12           1           1          12
 AtmWgt=   1.0078250   1.0078250  12.0000000   1.0078250   1.0078250  12.0000000  12.0000000   1.0078250   1.0078250  12.0000000
 NucSpn=           1           1           0           1           1           0           0           1           1           0
 AtZEff=   0.0000000   0.0000000   0.0000000   0.0000000   0.0000000   0.0000000   0.0000000   0.0000000   0.0000000   0.0000000
 NQMom=    0.0000000   0.0000000   0.0000000   0.0000000   0.0000000   0.0000000   0.0000000   0.0000000   0.0000000   0.0000000
 NMagM=    2.7928460   2.7928460   0.0000000   2.7928460   2.7928460   0.0000000   0.0000000   2.7928460   2.7928460   0.0000000
 AtZNuc=   1.0000000   1.0000000   6.0000000   1.0000000   1.0000000   6.0000000   6.0000000   1.0000000   1.0000000   6.0000000

  Atom        31          32          33          34          35          36          37          38          39          40
 IAtWgt=           1          12           1          12           1          12           1          12          12           1
 AtmWgt=   1.0078250  12.0000000   1.0078250  12.0000000   1.0078250  12.0000000   1.0078250  12.0000000  12.0000000   1.0078250
 NucSpn=           1           0           1           0           1           0           1           0           0           1
 AtZEff=   0.0000000   0.0000000   0.0000000   0.0000000   0.0000000   0.0000000   0.0000000   0.0000000   0.0000000   0.0000000
 NQMom=    0.0000000   0.0000000   0.0000000   0.0000000   0.0000000   0.0000000   0.0000000   0.0000000   0.0000000   0.0000000
 NMagM=    2.7928460   0.0000000   2.7928460   0.0000000   2.7928460   0.0000000   2.7928460   0.0000000   0.0000000   2.7928460
 AtZNuc=   1.0000000   6.0000000   1.0000000   6.0000000   1.0000000   6.0000000   1.0000000   6.0000000   6.0000000   1.0000000

  Atom        41          42          43          44          45          46          47          48          49          50
 IAtWgt=          12           1          12           1          12           1          12           1          12           1
 AtmWgt=  12.0000000   1.0078250  12.0000000   1.0078250  12.0000000   1.0078250  12.0000000   1.0078250  12.0000000   1.0078250
 NucSpn=           0           1           0           1           0           1           0           1           0           1
 AtZEff=   0.0000000   0.0000000   0.0000000   0.0000000   0.0000000   0.0000000   0.0000000   0.0000000   0.0000000   0.0000000
 NQMom=    0.0000000   0.0000000   0.0000000   0.0000000   0.0000000   0.0000000   0.0000000   0.0000000   0.0000000   0.0000000
 NMagM=    0.0000000   2.7928460   0.0000000   2.7928460   0.0000000   2.7928460   0.0000000   2.7928460   0.0000000   2.7928460
 AtZNuc=   6.0000000   1.0000000   6.0000000   1.0000000   6.0000000   1.0000000   6.0000000   1.0000000   6.0000000   1.0000000

  Atom        51          52          53          54          55          56          57          58          59          60
 IAtWgt=          12           1          12           1          12           1          12           1          12           1
 AtmWgt=  12.0000000   1.0078250  12.0000000   1.0078250  12.0000000   1.0078250  12.0000000   1.0078250  12.0000000   1.0078250
 NucSpn=           0           1           0           1           0           1           0           1           0           1
 AtZEff=   0.0000000   0.0000000   0.0000000   0.0000000   0.0000000   0.0000000   0.0000000   0.0000000   0.0000000   0.0000000
 NQMom=    0.0000000   0.0000000   0.0000000   0.0000000   0.0000000   0.0000000   0.0000000   0.0000000   0.0000000   0.0000000
 NMagM=    0.0000000   2.7928460   0.0000000   2.7928460   0.0000000   2.7928460   0.0000000   2.7928460   0.0000000   2.7928460
 AtZNuc=   6.0000000   1.0000000   6.0000000   1.0000000   6.0000000   1.0000000   6.0000000   1.0000000   6.0000000   1.0000000

  Atom        61          62          63          64          65          66          67          68          69          70
 IAtWgt=          12           1           1          16          12          14           1           1          12           1
 AtmWgt=  12.0000000   1.0078250   1.0078250  15.9949146  12.0000000  14.0030740   1.0078250   1.0078250  12.0000000   1.0078250
 NucSpn=           0           1           1           0           0           2           1           1           0           1
 AtZEff=   0.0000000   0.0000000   0.0000000   0.0000000   0.0000000   0.0000000   0.0000000   0.0000000   0.0000000   0.0000000
 NQMom=    0.0000000   0.0000000   0.0000000   0.0000000   0.0000000   2.0440000   0.0000000   0.0000000   0.0000000   0.0000000
 NMagM=    0.0000000   2.7928460   2.7928460   0.0000000   0.0000000   0.4037610   2.7928460   2.7928460   0.0000000   2.7928460
 AtZNuc=   6.0000000   1.0000000   1.0000000   8.0000000   6.0000000   7.0000000   1.0000000   1.0000000   6.0000000   1.0000000

  Atom        71          72
 IAtWgt=           1           1
 AtmWgt=   1.0078250   1.0078250
 NucSpn=           1           1
 AtZEff=   0.0000000   0.0000000
 NQMom=    0.0000000   0.0000000
 NMagM=    2.7928460   2.7928460
 AtZNuc=   1.0000000   1.0000000
 Leave Link  101 at Sat Mar  2 07:34:36 2024, MaxMem=  1073741824 cpu:               1.1 elap:               0.1
 (Enter /usr/local/Gaussian/g16/l103.exe)

 GradGradGradGradGradGradGradGradGradGradGradGradGradGradGradGradGradGrad
 Berny optimization.
 Initialization pass.
 Trust Radius=3.00D-01 FncErr=1.00D-07 GrdErr=1.00D-07 EigMax=2.50D+02 EigMin=1.00D-04
 Number of steps in this run=      2 maximum allowed number of steps=      2.
 GradGradGradGradGradGradGradGradGradGradGradGradGradGradGradGradGradGrad

 Leave Link  103 at Sat Mar  2 07:34:36 2024, MaxMem=  1073741824 cpu:               0.3 elap:               0.0
 (Enter /usr/local/Gaussian/g16/l202.exe)
 Stoichiometry    C31H34N2O2P2Ru
 Framework group  C1[X(C31H34N2O2P2Ru)]
 Deg. of freedom   210
 Full point group                 C1      NOp   1
 Largest Abelian subgroup         C1      NOp   1
 Largest concise Abelian subgroup C1      NOp   1
                         Standard orientation:
 ---------------------------------------------------------------------
 Center     Atomic     Atomic              Coordinates (Angstroms)
 Number     Number      Type              X           Y           Z
 ---------------------------------------------------------------------
    1         44             0       -0.006377   -0.093755    0.058759
    2         15             0       -2.308632    0.165454    0.367619
    3         15             0        2.299275    0.112371    0.374614
    4          7             0       -0.012809   -0.158326    2.259904
    5          8             0        0.034046    0.173657   -2.955021
    6          6             0       -3.137868    1.781736   -0.046165
    7          6             0        1.195759    0.379823    2.892543
    8          1             0        1.225102    0.108217    3.978960
    9          1             0        1.191372    1.501634    2.862651
   10          6             0       -2.381751    2.877433   -0.511245
   11          1             0       -1.292581    2.755402   -0.629383
   12          6             0        3.555295   -1.039819   -0.359049
   13          6             0       -3.500780   -1.058557   -0.353644
   14          6             0        3.413855    2.697022    0.977921
   15          1             0        3.274089    2.465023    2.044713
   16          6             0       -4.509652   -1.696449    0.403608
   17          1             0       -4.628901   -1.479806    1.476460
   18          6             0        3.148177   -2.073109   -1.229194
   19          1             0        2.081832   -2.189076   -1.474302
   20          6             0        2.470520   -0.134222    2.217491
   21          1             0        2.575380   -1.231192    2.357429
   22          1             0        3.387717    0.336129    2.627725
   23          6             0       -2.490553   -0.004270    2.223303
   24          1             0       -3.371848    0.553645    2.599907
   25          1             0       -2.654040   -1.080628    2.441454
   26          6             0        3.062462    1.757213   -0.014729
   27          6             0       -1.187529    0.479527    2.866349
   28          1             0       -1.126361    1.596661    2.778044
   29          1             0       -1.228248    0.265100    3.965064
   30          6             0        4.099888   -2.956391   -1.774177
   31          1             0        3.771665   -3.757499   -2.455474
   32          6             0        4.928064   -0.898185   -0.046256
   33          1             0        5.264486   -0.084401    0.616773
   34          6             0       -5.159611    3.154677   -0.172974
   35          1             0       -6.248650    3.257033   -0.040953
   36          6             0       -4.535888    1.929369    0.115387
   37          1             0       -5.148581    1.080886    0.460498
   38          6             0        0.015273    0.043790   -1.780265
   39          6             0       -3.383838   -1.364273   -1.729756
   40          1             0       -2.593617   -0.887886   -2.331056
   41          6             0       -3.009662    4.102390   -0.804996
   42          1             0       -2.406944    4.949267   -1.170413
   43          6             0        3.942590    3.951209    0.617198
   44          1             0        4.211867    4.673712    1.404201
   45          6             0        5.873486   -1.785887   -0.585564
   46          1             0        6.939608   -1.669462   -0.333027
   47          6             0        3.250338    2.097031   -1.375128
   48          1             0        2.978293    1.377909   -2.164974
   49          6             0       -4.397522    4.244696   -0.635070
   50          1             0       -4.888747    5.203442   -0.865963
   51          6             0        5.460658   -2.816639   -1.452129
   52          1             0        6.204027   -3.508627   -1.879120
   53          6             0       -5.381970   -2.619163   -0.204400
   54          1             0       -6.162337   -3.109190    0.399575
   55          6             0        4.127263    4.280037   -0.736439
   56          1             0        4.541139    5.261625   -1.016775
   57          6             0       -4.259973   -2.279962   -2.335377
   58          1             0       -4.153948   -2.507683   -3.407914
   59          6             0       -5.260767   -2.911821   -1.573705
   60          1             0       -5.943618   -3.634742   -2.047518
   61          6             0        3.779845    3.347517   -1.732593
   62          1             0        3.921119    3.595764   -2.796620
   63          1             0        0.075562    1.562944    0.251084
   64          8             0       -0.137216   -3.091938   -0.701386
   65          6             0       -0.120912   -2.161553    0.069686
   66          7             0       -0.244349   -2.723897    1.707889
   67          1             0       -0.107910   -1.703894    2.207349
   68          1             0       -1.221511   -3.038880    1.811443
   69          6             0        0.687665   -3.808364    2.030382
   70          1             0        1.725421   -3.419928    2.011879
   71          1             0        0.487855   -4.232850    3.035706
   72          1             0        0.610529   -4.617845    1.274287
 ---------------------------------------------------------------------
 Rotational constants (GHZ):           0.1265478           0.0708337           0.0572173
 Leave Link  202 at Sat Mar  2 07:34:36 2024, MaxMem=  1073741824 cpu:               0.2 elap:               0.0
 (Enter /usr/local/Gaussian/g16/l301.exe)
 General basis read from cards:  (5D, 7F)
 Centers:       6      7     10     12     13     14     16     18     20     23
 Centers:      26     27     30     32     34     36     38     39     41     43
 Centers:      45     47     49     51     53     55     57     59     61     65
 Centers:      69      8      9     11     15     17     19     21     22     24
 Centers:      25     28     29     31     33     35     37     40     42     44
 Centers:      46     48     50     52     54     56     58     60     62     63
 Centers:      67     68     70     71     72      5     64      4     66      2
 Centers:       3      1
 def2svp
 ****
 Centers:       1
 SDD
 ****
 ======================================================================================================
                                       Pseudopotential Parameters
 ======================================================================================================
  Center     Atomic      Valence      Angular      Power
  Number     Number     Electrons     Momentum     of R      Exponent        Coefficient   SO-Coeffient
 ======================================================================================================
    1         44           16
                                      G and up
                                                     2        1.0000000        0.00000000    0.00000000
                                      S - G
                                                     2       11.1052690      209.82297100    0.00000000
                                                     2        5.4147450       30.65472600    0.00000000
                                      P - G
                                                     2        9.7712710      146.33618200    0.00000000
                                                     2        5.0739910       24.12787700    0.00000000
                                      D - G
                                                     2        7.6714230       67.51589700    0.00000000
                                                     2        4.1365650        9.87010400    0.00000000
                                      F - G
                                                     2       11.3600000      -28.34061600    0.00000000
                                                     2        5.6800000       -4.94462900    0.00000000
    2         15
                                   No pseudopotential on this center.
    3         15
                                   No pseudopotential on this center.
    4          7
                                   No pseudopotential on this center.
    5          8
                                   No pseudopotential on this center.
    6          6
                                   No pseudopotential on this center.
    7          6
                                   No pseudopotential on this center.
    8          1
                                   No pseudopotential on this center.
    9          1
                                   No pseudopotential on this center.
   10          6
                                   No pseudopotential on this center.
   11          1
                                   No pseudopotential on this center.
   12          6
                                   No pseudopotential on this center.
   13          6
                                   No pseudopotential on this center.
   14          6
                                   No pseudopotential on this center.
   15          1
                                   No pseudopotential on this center.
   16          6
                                   No pseudopotential on this center.
   17          1
                                   No pseudopotential on this center.
   18          6
                                   No pseudopotential on this center.
   19          1
                                   No pseudopotential on this center.
   20          6
                                   No pseudopotential on this center.
   21          1
                                   No pseudopotential on this center.
   22          1
                                   No pseudopotential on this center.
   23          6
                                   No pseudopotential on this center.
   24          1
                                   No pseudopotential on this center.
   25          1
                                   No pseudopotential on this center.
   26          6
                                   No pseudopotential on this center.
   27          6
                                   No pseudopotential on this center.
   28          1
                                   No pseudopotential on this center.
   29          1
                                   No pseudopotential on this center.
   30          6
                                   No pseudopotential on this center.
   31          1
                                   No pseudopotential on this center.
   32          6
                                   No pseudopotential on this center.
   33          1
                                   No pseudopotential on this center.
   34          6
                                   No pseudopotential on this center.
   35          1
                                   No pseudopotential on this center.
   36          6
                                   No pseudopotential on this center.
   37          1
                                   No pseudopotential on this center.
   38          6
                                   No pseudopotential on this center.
   39          6
                                   No pseudopotential on this center.
   40          1
                                   No pseudopotential on this center.
   41          6
                                   No pseudopotential on this center.
   42          1
                                   No pseudopotential on this center.
   43          6
                                   No pseudopotential on this center.
   44          1
                                   No pseudopotential on this center.
   45          6
                                   No pseudopotential on this center.
   46          1
                                   No pseudopotential on this center.
   47          6
                                   No pseudopotential on this center.
   48          1
                                   No pseudopotential on this center.
   49          6
                                   No pseudopotential on this center.
   50          1
                                   No pseudopotential on this center.
   51          6
                                   No pseudopotential on this center.
   52          1
                                   No pseudopotential on this center.
   53          6
                                   No pseudopotential on this center.
   54          1
                                   No pseudopotential on this center.
   55          6
                                   No pseudopotential on this center.
   56          1
                                   No pseudopotential on this center.
   57          6
                                   No pseudopotential on this center.
   58          1
                                   No pseudopotential on this center.
   59          6
                                   No pseudopotential on this center.
   60          1
                                   No pseudopotential on this center.
   61          6
                                   No pseudopotential on this center.
   62          1
                                   No pseudopotential on this center.
   63          1
                                   No pseudopotential on this center.
   64          8
                                   No pseudopotential on this center.
   65          6
                                   No pseudopotential on this center.
   66          7
                                   No pseudopotential on this center.
   67          1
                                   No pseudopotential on this center.
   68          1
                                   No pseudopotential on this center.
   69          6
                                   No pseudopotential on this center.
   70          1
                                   No pseudopotential on this center.
   71          1
                                   No pseudopotential on this center.
   72          1
                                   No pseudopotential on this center.
 ======================================================================================================
 Ernie: Thresh=  0.10000D-02 Tol=  0.10000D-05 Strict=F.
 Ernie:  3 primitive shells out of 666 were deleted.
 There are   808 symmetry adapted cartesian basis functions of A   symmetry.
 There are   763 symmetry adapted basis functions of A   symmetry.
   763 basis functions,  1312 primitive gaussians,   808 cartesian basis functions
   148 alpha electrons      148 beta electrons
       nuclear repulsion energy      5070.4316371821 Hartrees.
 IExCor=  404 DFT=T Ex=B Corr=P86 ExCW=0 ScaHFX=  0.000000
 ScaDFX=  1.000000  1.000000  1.000000  1.000000 ScalE2=  1.000000  1.000000
 IRadAn=      5 IRanWt=     -1 IRanGd=            0 ICorTp=0 IEmpDi=  4
 NAtoms=   72 NActive=   72 NUniq=   72 SFac= 1.00D+00 NAtFMM=   60 NAOKFM=T Big=T
 Integral buffers will be    131072 words long.
 Raffenetti 2 integral format.
 Two-electron integral symmetry is turned on.
 Standard density basis: Auto (5D, 7F)
 AutoDB:  IAlg=4 SamFac= 1.50 LInc=0 MaxL= 6.
 Shells with S=P=... and L > 2 split apart in FixB.
  4219 Density fitting functions
 There are  4219 symmetry adapted density basis functions of A   symmetry.
 Force inversion solution in PCM.
 ------------------------------------------------------------------------------
 Polarizable Continuum Model (PCM)
 =================================
 Model                : PCM.
 Atomic radii         : UFF (Universal Force Field).
 Polarization charges : Total charges.
 Charge compensation  : None.
 Solution method      : Matrix inversion.
 Cavity type          : Scaled VdW (van der Waals Surface) (Alpha=1.100).
 Cavity algorithm     : GePol (No added spheres)
                        Default sphere list used, NSphG=   72.
                        Lebedev-Laikov grids with approx.  5.0 points / Ang**2.
                        Smoothing algorithm: York/Karplus (Gamma=1.0000).
                        Polarization charges: spherical gaussians, with
                                              point-specific exponents (IZeta= 3).
                        Self-potential: point-specific (ISelfS= 7).
                        Self-field    : sphere-specific E.n sum rule (ISelfD= 2).
 1st derivatives      : Analytical E(r).r(x)/FMM algorithm (CHGder, D1EAlg=3).
                        Cavity 1st derivative terms included.
 2nd derivatives      : Analytical E(r).r(xy)/FMM algorithm (CHGder, D2EAlg=3).
                        Cavity 2nd derivative terms included.
 Solvent              : TetraHydroFuran, Eps=   7.425700 Eps(inf)=   1.974025
 ------------------------------------------------------------------------------
 GePol: Number of generator spheres                  =      72
 GePol: Total number of spheres                      =      72
 GePol: Number of exposed spheres                    =      71 ( 98.61%)
 GePol: Number of points                             =    4946
 GePol: Average weight of points                     =       0.13
 GePol: Minimum weight of points                     =   0.16D-11
 GePol: Maximum weight of points                     =    0.20577
 GePol: Number of points with low weight             =     364
 GePol: Fraction of low-weight points (<1% of avg)   =       7.36%
 GePol: Cavity surface area                          =    626.581 Ang**2
 GePol: Cavity volume                                =    765.507 Ang**3
 Leave Link  301 at Sat Mar  2 07:34:37 2024, MaxMem=  1073741824 cpu:               1.1 elap:               0.1
 (Enter /usr/local/Gaussian/g16/l302.exe)
 NPDir=0 NMtPBC=     1 NCelOv=     1 NCel=       1 NClECP=     1 NCelD=      1
         NCelK=      1 NCelE2=     1 NClLst=     1 CellRange=     0.0.
 One-electron integrals computed using PRISM.
 One-electron integral symmetry used in STVInt
   1 Symmetry operations used in ECPInt.
 ECPInt:  NShTT=   62481 NPrTT=  220738 LenC2=   53319 LenP2D=  124521.
 LDataN:  DoStor=T MaxTD1= 7 Len=  274
 NBasis=   763 RedAO= T EigKep=  2.50D-06  NBF=   763
 NBsUse=   754 1.00D-06 EigRej=  8.76D-07 NBFU=   754
 NBasis=      763 NBas6D=      808 NTT=      291466   NTT6D=   326836
 NDBShl=      651 NDBF=       4219 NDBF6D=     5044  NNucDB=        0
 IDenFi=        2 ISolve=        0 FullAP=F BlkAPC=T NucTyp=        0
 TolInv= 1.00D-06 TolIt=  1.00D-10 IR12=0.
 FoFCou: FMM=F IPFlag=           0 FMFlag=           0 FMFlg1=           0
         NFxFlg=           0 DoJE=F BraDBF=T KetDBF=T FulRan=T
         wScrn=  0.000000 ICntrl=       600 IOpCl=  3 I1Cent=           6 NGrid=           0
         NMat0=    1 NMatS0=   5044 NMatT0=    0 NMatD0=    1 NMtDS0=    0 NMtDT0=    0
 Petite list used in FoFCou.
 DBF EigKep=  1.09D-06 EigRej=  9.16D-07
 NDBF=   4219  NBFD=  4219
 NRank=  4201 NBFDU=  4201
 S*AI*S=  13.9620532249
 Precomputing XC quadrature grid using
 IXCGrd= 4 IRadAn=           5 IRanWt=          -1 IRanGd=           0 AccXCQ= 0.00D+00.
 Defaulting to unpruned grid for atomic number  44.
 Generated NRdTot=       0 NPtTot=           0 NUsed=           0 NTot=          32
 NSgBfM=   795   795   795   795   795 MxSgAt=    72 MxSgA2=    72.
 Leave Link  302 at Sat Mar  2 07:35:32 2024, MaxMem=  1073741824 cpu:             882.4 elap:              55.2
 (Enter /usr/local/Gaussian/g16/l303.exe)
 DipDrv:  MaxL=1.
 Leave Link  303 at Sat Mar  2 07:35:32 2024, MaxMem=  1073741824 cpu:               2.2 elap:               0.2
 (Enter /usr/local/Gaussian/g16/l401.exe)
 ExpMin= 1.60D-02 ExpMax= 8.00D+03 ExpMxC= 1.20D+03 IAcc=3 IRadAn=         5 AccDes= 0.00D+00
 Harris functional with IExCor=  404 and IRadAn=       5 diagonalized for initial guess.
 HarFok:  IExCor=  404 AccDes= 0.00D+00 IRadAn=         5 IDoV= 1 UseB2=F ITyADJ=14
 ICtDFT=  3500011 ScaDFX=  1.000000  1.000000  1.000000  1.000000
 Defaulting to unpruned grid for atomic number  44.
 FoFCou: FMM=F IPFlag=           0 FMFlag=      100000 FMFlg1=        2001
         NFxFlg=           0 DoJE=T BraDBF=F KetDBF=T FulRan=T
         wScrn=  0.000000 ICntrl=       500 IOpCl=  0 I1Cent=   200000004 NGrid=           0
         NMat0=    1 NMatS0=      1 NMatT0=    0 NMatD0=    1 NMtDS0=    0 NMtDT0=    0
 Petite list used in FoFCou.
 Harris En= -2238.77569272853
 JPrj=0 DoOrth=F DoCkMO=F.
 Leave Link  401 at Sat Mar  2 07:35:40 2024, MaxMem=  1073741824 cpu:             133.7 elap:               8.4
 (Enter /usr/local/Gaussian/g16/l502.exe)
 Density fitting will be used, IDenFit= 2 NucTyp=  0.
 Integral symmetry usage will be decided dynamically.
 Closed shell SCF:
 Using DIIS extrapolation, IDIIS=  1040.
 NGot=  1073741824 LenX=  1072412211 LenY=  1071758539
 Requested convergence on RMS density matrix=1.00D-08 within 128 cycles.
 Requested convergence on MAX density matrix=1.00D-06.
 Requested convergence on             energy=1.00D-06.
 No special actions if energy rises.
 Fock matrices will be formed incrementally for  20 cycles.

 Cycle   1  Pass 1  IDiag  1:
 FoFCou: FMM=F IPFlag=           0 FMFlag=      100000 FMFlg1=        2001
         NFxFlg=           0 DoJE=T BraDBF=T KetDBF=F FulRan=T
         wScrn=  0.000000 ICntrl=       500 IOpCl=  0 I1Cent=           5 NGrid=           0
         NMat0=    1 NMatS0=      1 NMatT0=    0 NMatD0=    1 NMtDS0=    0 NMtDT0=    0
 Symmetry not used in FoFCou.
 FoFJK:  IHMeth= 1 ICntrl=     500 DoSepK=F KAlg= 0 I1Cent=           4 FoldK=F
 IRaf= 990000000 NMat=       1 IRICut=       1 DoRegI=T DoRafI=F ISym2E= 0 IDoP0=0 IntGTp=1.
 Defaulting to unpruned grid for atomic number  44.
 Defaulting to unpruned grid for atomic number  44.
 Defaulting to unpruned grid for atomic number  44.
 Defaulting to unpruned grid for atomic number  44.
 Defaulting to unpruned grid for atomic number  44.
 Defaulting to unpruned grid for atomic number  44.
 Defaulting to unpruned grid for atomic number  44.
 Defaulting to unpruned grid for atomic number  44.
 Defaulting to unpruned grid for atomic number  44.
 Defaulting to unpruned grid for atomic number  44.
 Defaulting to unpruned grid for atomic number  44.
 Defaulting to unpruned grid for atomic number  44.
 Defaulting to unpruned grid for atomic number  44.
 Defaulting to unpruned grid for atomic number  44.
 Defaulting to unpruned grid for atomic number  44.
 Defaulting to unpruned grid for atomic number  44.
 Inv3:  Mode=1 IEnd=    73388748.
 Iteration    1 A*A^-1 deviation from unit magnitude is 1.90D-14 for   4539.
 Iteration    1 A*A^-1 deviation from orthogonality  is 3.62D-14 for   4761   4539.
 Iteration    1 A^-1*A deviation from unit magnitude is 1.62D-14 for   4761.
 Iteration    1 A^-1*A deviation from orthogonality  is 3.70D-14 for   4761   4561.
 E= -2237.23212370415
 DIIS: error= 2.32D-02 at cycle   1 NSaved=   1.
 NSaved= 1 IEnMin= 1 EnMin= -2237.23212370415     IErMin= 1 ErrMin= 2.32D-02
 ErrMax= 2.32D-02  0.00D+00 EMaxC= 1.00D-01 BMatC= 1.30D+00 BMatP= 1.30D+00
 IDIUse=3 WtCom= 7.68D-01 WtEn= 2.32D-01
 Coeff-Com:  0.100D+01
 Coeff-En:   0.100D+01
 Coeff:      0.100D+01
 Gap=     0.351 Goal=   None    Shift=    0.000
 GapD=    0.351 DampG=1.000 DampE=0.250 DampFc=0.2500 IDamp=-1.
 Damping current iteration by 2.50D-01
 RMSDP=3.09D-01 MaxDP=8.16D+01              OVMax= 5.24D-01

 Cycle   2  Pass 1  IDiag  1:
 RMSU=  4.15D-02    CP:  1.63D+00
 E= -2237.48112092911     Delta-E=       -0.248997224960 Rises=F Damp=T
 DIIS: error= 1.04D-02 at cycle   2 NSaved=   2.
 NSaved= 2 IEnMin= 2 EnMin= -2237.48112092911     IErMin= 2 ErrMin= 1.04D-02
 ErrMax= 1.04D-02  0.00D+00 EMaxC= 1.00D-01 BMatC= 1.67D-01 BMatP= 1.30D+00
 IDIUse=3 WtCom= 8.96D-01 WtEn= 1.04D-01
 Coeff-Com:  0.234D-01 0.977D+00
 Coeff-En:   0.351D+00 0.649D+00
 Coeff:      0.574D-01 0.943D+00
 Gap=    -0.037 Goal=   None    Shift=    0.000
 RMSDP=1.37D-01 MaxDP=3.27D+01 DE=-2.49D-01 OVMax= 7.22D-01

 Cycle   3  Pass 1  IDiag  1:
 RMSU=  4.32D-02    CP:  4.39D-01 -4.01D-02
 E= -2237.56271282557     Delta-E=       -0.081591896457 Rises=F Damp=F
 DIIS: error= 2.89D-02 at cycle   3 NSaved=   3.
 NSaved= 3 IEnMin= 3 EnMin= -2237.56271282557     IErMin= 2 ErrMin= 1.04D-02
 ErrMax= 2.89D-02  0.00D+00 EMaxC= 1.00D-01 BMatC= 8.57D-01 BMatP= 1.67D-01
 IDIUse=2 WtCom= 0.00D+00 WtEn= 1.00D+00
 Coeff-En:   0.000D+00 0.467D+00 0.533D+00
 Coeff:      0.000D+00 0.467D+00 0.533D+00
 Gap=     0.258 Goal=   None    Shift=    0.000
 RMSDP=2.61D-02 MaxDP=5.11D+00 DE=-8.16D-02 OVMax= 3.78D-01

 Cycle   4  Pass 1  IDiag  1:
 RMSU=  2.21D-02    CP:  5.38D-01  1.86D-01  1.02D+00
 E= -2236.12989143512     Delta-E=        1.432821390449 Rises=F Damp=F
 DIIS: error= 4.61D-02 at cycle   4 NSaved=   4.
 NSaved= 4 IEnMin= 3 EnMin= -2237.56271282557     IErMin= 2 ErrMin= 1.04D-02
 ErrMax= 4.61D-02  0.00D+00 EMaxC= 1.00D-01 BMatC= 2.72D+00 BMatP= 1.67D-01
 IDIUse=2 WtCom= 0.00D+00 WtEn= 1.00D+00
 EnCoef did     4 forward-backward iterations
 Coeff-En:   0.118D+00 0.000D+00 0.557D+00 0.325D+00
 Coeff:      0.118D+00 0.000D+00 0.557D+00 0.325D+00
 Gap=     0.091 Goal=   None    Shift=    0.000
 RMSDP=2.42D-02 MaxDP=3.57D+00 DE= 1.43D+00 OVMax= 3.11D-01

 Cycle   5  Pass 1  IDiag  1:
 RMSU=  1.31D-02    CP:  5.60D-01 -1.73D-01  8.83D-01  4.38D-01
 E= -2238.29579571165     Delta-E=       -2.165904276531 Rises=F Damp=F
 DIIS: error= 6.37D-03 at cycle   5 NSaved=   5.
 NSaved= 5 IEnMin= 5 EnMin= -2238.29579571165     IErMin= 5 ErrMin= 6.37D-03
 ErrMax= 6.37D-03  0.00D+00 EMaxC= 1.00D-01 BMatC= 8.80D-02 BMatP= 1.67D-01
 IDIUse=3 WtCom= 9.36D-01 WtEn= 6.37D-02
 Coeff-Com: -0.131D+00 0.459D+00 0.278D+00 0.144D-01 0.379D+00
 Coeff-En:   0.000D+00 0.000D+00 0.755D-01 0.000D+00 0.924D+00
 Coeff:     -0.122D+00 0.430D+00 0.265D+00 0.135D-01 0.413D+00
 Gap=     0.132 Goal=   None    Shift=    0.000
 RMSDP=1.64D-02 MaxDP=2.55D+00 DE=-2.17D+00 OVMax= 1.54D-01

 Cycle   6  Pass 1  IDiag  1:
 RMSU=  4.55D-03    CP:  4.45D-01 -1.06D-01  7.96D-01  3.01D-01  3.31D-01
 E= -2238.29433543906     Delta-E=        0.001460272592 Rises=F Damp=F
 DIIS: error= 8.77D-03 at cycle   6 NSaved=   6.
 NSaved= 6 IEnMin= 5 EnMin= -2238.29579571165     IErMin= 5 ErrMin= 6.37D-03
 ErrMax= 8.77D-03  0.00D+00 EMaxC= 1.00D-01 BMatC= 1.00D-01 BMatP= 8.80D-02
 IDIUse=3 WtCom= 9.36D-01 WtEn= 6.37D-02
 Coeff-Com: -0.100D+00 0.173D+00 0.117D+00-0.333D-01 0.480D+00 0.364D+00
 Coeff-En:   0.000D+00 0.000D+00 0.000D+00 0.000D+00 0.503D+00 0.497D+00
 Coeff:     -0.939D-01 0.162D+00 0.109D+00-0.312D-01 0.481D+00 0.372D+00
 Gap=     0.099 Goal=   None    Shift=    0.000
 RMSDP=5.81D-03 MaxDP=9.45D-01 DE= 1.46D-03 OVMax= 7.18D-02

 Cycle   7  Pass 1  IDiag  1:
 RMSU=  1.81D-03    CP:  4.73D-01 -1.39D-01  8.51D-01  3.25D-01  5.44D-01
                    CP:  4.41D-01
 E= -2238.37863232999     Delta-E=       -0.084296890934 Rises=F Damp=F
 DIIS: error= 1.62D-03 at cycle   7 NSaved=   7.
 NSaved= 7 IEnMin= 7 EnMin= -2238.37863232999     IErMin= 7 ErrMin= 1.62D-03
 ErrMax= 1.62D-03  0.00D+00 EMaxC= 1.00D-01 BMatC= 5.10D-03 BMatP= 8.80D-02
 IDIUse=3 WtCom= 9.84D-01 WtEn= 1.62D-02
 Coeff-Com: -0.632D-01 0.821D-01 0.562D-01-0.224D-01 0.333D+00 0.247D+00
 Coeff-Com:  0.367D+00
 Coeff-En:   0.000D+00 0.000D+00 0.000D+00 0.000D+00 0.000D+00 0.000D+00
 Coeff-En:   0.100D+01
 Coeff:     -0.622D-01 0.808D-01 0.553D-01-0.220D-01 0.328D+00 0.243D+00
 Coeff:      0.378D+00
 Gap=     0.097 Goal=   None    Shift=    0.000
 RMSDP=1.79D-03 MaxDP=3.05D-01 DE=-8.43D-02 OVMax= 3.26D-02

 Cycle   8  Pass 1  IDiag  1:
 RMSU=  5.87D-04    CP:  4.80D-01 -1.39D-01  8.64D-01  3.60D-01  6.12D-01
                    CP:  4.01D-01  5.59D-01
 E= -2238.38333895736     Delta-E=       -0.004706627368 Rises=F Damp=F
 DIIS: error= 5.97D-04 at cycle   8 NSaved=   8.
 NSaved= 8 IEnMin= 8 EnMin= -2238.38333895736     IErMin= 8 ErrMin= 5.97D-04
 ErrMax= 5.97D-04  0.00D+00 EMaxC= 1.00D-01 BMatC= 6.79D-04 BMatP= 5.10D-03
 IDIUse=3 WtCom= 9.94D-01 WtEn= 5.97D-03
 Coeff-Com: -0.902D-02 0.357D-02 0.784D-02-0.224D-02 0.939D-01 0.356D-01
 Coeff-Com:  0.245D+00 0.625D+00
 Coeff-En:   0.000D+00 0.000D+00 0.000D+00 0.000D+00 0.000D+00 0.000D+00
 Coeff-En:   0.774D-01 0.923D+00
 Coeff:     -0.897D-02 0.355D-02 0.779D-02-0.223D-02 0.934D-01 0.354D-01
 Coeff:      0.244D+00 0.627D+00
 Gap=     0.094 Goal=   None    Shift=    0.000
 RMSDP=6.39D-04 MaxDP=1.39D-01 DE=-4.71D-03 OVMax= 5.48D-03

 Cycle   9  Pass 1  IDiag  1:
 RMSU=  2.08D-04    CP:  4.83D-01 -1.40D-01  8.74D-01  3.63D-01  6.25D-01
                    CP:  3.69D-01  6.33D-01  9.06D-01
 E= -2238.38380630617     Delta-E=       -0.000467348815 Rises=F Damp=F
 DIIS: error= 3.32D-04 at cycle   9 NSaved=   9.
 NSaved= 9 IEnMin= 9 EnMin= -2238.38380630617     IErMin= 9 ErrMin= 3.32D-04
 ErrMax= 3.32D-04  0.00D+00 EMaxC= 1.00D-01 BMatC= 1.21D-04 BMatP= 6.79D-04
 IDIUse=3 WtCom= 9.97D-01 WtEn= 3.32D-03
 Coeff-Com: -0.205D-02-0.177D-02 0.382D-03 0.143D-04 0.335D-01 0.323D-02
 Coeff-Com:  0.138D+00 0.448D+00 0.381D+00
 Coeff-En:   0.000D+00 0.000D+00 0.000D+00 0.000D+00 0.000D+00 0.000D+00
 Coeff-En:   0.000D+00 0.167D+00 0.833D+00
 Coeff:     -0.205D-02-0.176D-02 0.381D-03 0.143D-04 0.334D-01 0.322D-02
 Coeff:      0.138D+00 0.447D+00 0.382D+00
 Gap=     0.094 Goal=   None    Shift=    0.000
 RMSDP=2.06D-04 MaxDP=3.60D-02 DE=-4.67D-04 OVMax= 2.35D-03

 Cycle  10  Pass 1  IDiag  1:
 RMSU=  7.45D-05    CP:  4.82D-01 -1.39D-01  8.73D-01  3.64D-01  6.20D-01
                    CP:  3.73D-01  6.60D-01  8.46D-01  7.49D-01
 E= -2238.38390729091     Delta-E=       -0.000100984736 Rises=F Damp=F
 DIIS: error= 1.10D-04 at cycle  10 NSaved=  10.
 NSaved=10 IEnMin=10 EnMin= -2238.38390729091     IErMin=10 ErrMin= 1.10D-04
 ErrMax= 1.10D-04  0.00D+00 EMaxC= 1.00D-01 BMatC= 9.88D-06 BMatP= 1.21D-04
 IDIUse=3 WtCom= 9.99D-01 WtEn= 1.10D-03
 Coeff-Com: -0.338D-03-0.880D-03-0.775D-03 0.304D-03 0.781D-02-0.153D-03
 Coeff-Com:  0.519D-01 0.193D+00 0.229D+00 0.520D+00
 Coeff-En:   0.000D+00 0.000D+00 0.000D+00 0.000D+00 0.000D+00 0.000D+00
 Coeff-En:   0.000D+00 0.000D+00 0.000D+00 0.100D+01
 Coeff:     -0.337D-03-0.879D-03-0.774D-03 0.303D-03 0.780D-02-0.153D-03
 Coeff:      0.519D-01 0.193D+00 0.229D+00 0.520D+00
 Gap=     0.094 Goal=   None    Shift=    0.000
 RMSDP=5.98D-05 MaxDP=1.26D-02 DE=-1.01D-04 OVMax= 7.47D-04

 Cycle  11  Pass 1  IDiag  1:
 RMSU=  2.75D-05    CP:  4.81D-01 -1.39D-01  8.72D-01  3.63D-01  6.20D-01
                    CP:  3.75D-01  6.61D-01  8.54D-01  6.98D-01  5.43D-01
 E= -2238.38391425091     Delta-E=       -0.000006960000 Rises=F Damp=F
 DIIS: error= 4.16D-05 at cycle  11 NSaved=  11.
 NSaved=11 IEnMin=11 EnMin= -2238.38391425091     IErMin=11 ErrMin= 4.16D-05
 ErrMax= 4.16D-05  0.00D+00 EMaxC= 1.00D-01 BMatC= 2.09D-06 BMatP= 9.88D-06
 IDIUse=1 WtCom= 1.00D+00 WtEn= 0.00D+00
 Coeff-Com: -0.357D-03 0.651D-04-0.504D-03 0.129D-03 0.257D-02 0.528D-03
 Coeff-Com:  0.228D-01 0.913D-01 0.120D+00 0.364D+00 0.400D+00
 Coeff:     -0.357D-03 0.651D-04-0.504D-03 0.129D-03 0.257D-02 0.528D-03
 Coeff:      0.228D-01 0.913D-01 0.120D+00 0.364D+00 0.400D+00
 Gap=     0.094 Goal=   None    Shift=    0.000
 RMSDP=2.04D-05 MaxDP=2.85D-03 DE=-6.96D-06 OVMax= 3.03D-04

 Cycle  12  Pass 1  IDiag  1:
 RMSU=  8.55D-06    CP:  4.82D-01 -1.39D-01  8.72D-01  3.63D-01  6.19D-01
                    CP:  3.76D-01  6.56D-01  8.60D-01  7.18D-01  6.11D-01
                    CP:  5.51D-01
 E= -2238.38391591156     Delta-E=       -0.000001660654 Rises=F Damp=F
 DIIS: error= 1.30D-05 at cycle  12 NSaved=  12.
 NSaved=12 IEnMin=12 EnMin= -2238.38391591156     IErMin=12 ErrMin= 1.30D-05
 ErrMax= 1.30D-05  0.00D+00 EMaxC= 1.00D-01 BMatC= 1.60D-07 BMatP= 2.09D-06
 IDIUse=1 WtCom= 1.00D+00 WtEn= 0.00D+00
 Coeff-Com: -0.203D-03 0.136D-03-0.307D-03 0.719D-04 0.624D-03 0.310D-03
 Coeff-Com:  0.910D-02 0.399D-01 0.537D-01 0.182D+00 0.262D+00 0.453D+00
 Coeff:     -0.203D-03 0.136D-03-0.307D-03 0.719D-04 0.624D-03 0.310D-03
 Coeff:      0.910D-02 0.399D-01 0.537D-01 0.182D+00 0.262D+00 0.453D+00
 Gap=     0.094 Goal=   None    Shift=    0.000
 RMSDP=9.15D-06 MaxDP=2.40D-03 DE=-1.66D-06 OVMax= 9.23D-05

 Cycle  13  Pass 1  IDiag  1:
 RMSU=  2.74D-06    CP:  4.82D-01 -1.39D-01  8.72D-01  3.63D-01  6.19D-01
                    CP:  3.76D-01  6.57D-01  8.57D-01  7.06D-01  6.12D-01
                    CP:  5.89D-01  6.08D-01
 E= -2238.38391602786     Delta-E=       -0.000000116298 Rises=F Damp=F
 DIIS: error= 4.61D-06 at cycle  13 NSaved=  13.
 NSaved=13 IEnMin=13 EnMin= -2238.38391602786     IErMin=13 ErrMin= 4.61D-06
 ErrMax= 4.61D-06  0.00D+00 EMaxC= 1.00D-01 BMatC= 3.12D-08 BMatP= 1.60D-07
 IDIUse=1 WtCom= 1.00D+00 WtEn= 0.00D+00
 Coeff-Com: -0.117D-03 0.117D-03-0.145D-03 0.321D-04 0.108D-03 0.175D-03
 Coeff-Com:  0.286D-02 0.138D-01 0.184D-01 0.685D-01 0.116D+00 0.309D+00
 Coeff-Com:  0.471D+00
 Coeff:     -0.117D-03 0.117D-03-0.145D-03 0.321D-04 0.108D-03 0.175D-03
 Coeff:      0.286D-02 0.138D-01 0.184D-01 0.685D-01 0.116D+00 0.309D+00
 Coeff:      0.471D+00
 Gap=     0.094 Goal=   None    Shift=    0.000
 RMSDP=4.79D-06 MaxDP=8.21D-04 DE=-1.16D-07 OVMax= 4.18D-05

 Cycle  14  Pass 1  IDiag  1:
 RMSU=  1.86D-06    CP:  4.82D-01 -1.39D-01  8.72D-01  3.63D-01  6.20D-01
                    CP:  3.76D-01  6.56D-01  8.57D-01  7.17D-01  6.19D-01
                    CP:  5.65D-01  6.93D-01  8.45D-01
 E= -2238.38391604798     Delta-E=       -0.000000020124 Rises=F Damp=F
 DIIS: error= 2.86D-06 at cycle  14 NSaved=  14.
 NSaved=14 IEnMin=14 EnMin= -2238.38391604798     IErMin=14 ErrMin= 2.86D-06
 ErrMax= 2.86D-06  0.00D+00 EMaxC= 1.00D-01 BMatC= 6.67D-09 BMatP= 3.12D-08
 IDIUse=1 WtCom= 1.00D+00 WtEn= 0.00D+00
 Coeff-Com: -0.539D-04 0.560D-04-0.494D-04 0.128D-04-0.296D-04 0.565D-04
 Coeff-Com:  0.176D-03 0.167D-02 0.182D-02 0.112D-01 0.262D-01 0.126D+00
 Coeff-Com:  0.320D+00 0.513D+00
 Coeff:     -0.539D-04 0.560D-04-0.494D-04 0.128D-04-0.296D-04 0.565D-04
 Coeff:      0.176D-03 0.167D-02 0.182D-02 0.112D-01 0.262D-01 0.126D+00
 Coeff:      0.320D+00 0.513D+00
 Gap=     0.094 Goal=   None    Shift=    0.000
 RMSDP=1.63D-06 MaxDP=3.56D-04 DE=-2.01D-08 OVMax= 1.79D-05

 Cycle  15  Pass 1  IDiag  1:
 RMSU=  6.53D-07    CP:  4.82D-01 -1.39D-01  8.72D-01  3.63D-01  6.20D-01
                    CP:  3.76D-01  6.57D-01  8.57D-01  7.15D-01  6.15D-01
                    CP:  5.87D-01  6.72D-01  8.13D-01  7.50D-01
 E= -2238.38391605309     Delta-E=       -0.000000005108 Rises=F Damp=F
 DIIS: error= 9.38D-07 at cycle  15 NSaved=  15.
 NSaved=15 IEnMin=15 EnMin= -2238.38391605309     IErMin=15 ErrMin= 9.38D-07
 ErrMax= 9.38D-07  0.00D+00 EMaxC= 1.00D-01 BMatC= 8.51D-10 BMatP= 6.67D-09
 IDIUse=1 WtCom= 1.00D+00 WtEn= 0.00D+00
 Coeff-Com: -0.189D-04 0.192D-04-0.132D-04 0.504D-05-0.244D-04 0.107D-05
 Coeff-Com: -0.280D-03-0.909D-03-0.149D-02-0.290D-02-0.271D-02 0.272D-01
 Coeff-Com:  0.111D+00 0.306D+00 0.565D+00
 Coeff:     -0.189D-04 0.192D-04-0.132D-04 0.504D-05-0.244D-04 0.107D-05
 Coeff:     -0.280D-03-0.909D-03-0.149D-02-0.290D-02-0.271D-02 0.272D-01
 Coeff:      0.111D+00 0.306D+00 0.565D+00
 Gap=     0.094 Goal=   None    Shift=    0.000
 RMSDP=5.32D-07 MaxDP=9.17D-05 DE=-5.11D-09 OVMax= 3.94D-06

 Cycle  16  Pass 1  IDiag  1:
 RMSU=  2.07D-07    CP:  4.82D-01 -1.39D-01  8.72D-01  3.63D-01  6.20D-01
                    CP:  3.76D-01  6.57D-01  8.57D-01  7.15D-01  6.17D-01
                    CP:  5.82D-01  6.86D-01  8.32D-01  7.21D-01  7.12D-01
 E= -2238.38391605374     Delta-E=       -0.000000000646 Rises=F Damp=F
 DIIS: error= 2.80D-07 at cycle  16 NSaved=  16.
 NSaved=16 IEnMin=16 EnMin= -2238.38391605374     IErMin=16 ErrMin= 2.80D-07
 ErrMax= 2.80D-07  0.00D+00 EMaxC= 1.00D-01 BMatC= 1.36D-10 BMatP= 8.51D-10
 IDIUse=1 WtCom= 1.00D+00 WtEn= 0.00D+00
 Coeff-Com: -0.564D-05 0.512D-05-0.153D-05 0.119D-05-0.502D-05-0.653D-05
 Coeff-Com: -0.198D-03-0.824D-03-0.123D-02-0.360D-02-0.625D-02-0.363D-02
 Coeff-Com:  0.155D-01 0.103D+00 0.357D+00 0.540D+00
 Coeff:     -0.564D-05 0.512D-05-0.153D-05 0.119D-05-0.502D-05-0.653D-05
 Coeff:     -0.198D-03-0.824D-03-0.123D-02-0.360D-02-0.625D-02-0.363D-02
 Coeff:      0.155D-01 0.103D+00 0.357D+00 0.540D+00
 Gap=     0.094 Goal=   None    Shift=    0.000
 RMSDP=3.01D-07 MaxDP=6.67D-05 DE=-6.46D-10 OVMax= 2.67D-06

 Cycle  17  Pass 1  IDiag  1:
 RMSU=  6.39D-08    CP:  4.82D-01 -1.39D-01  8.72D-01  3.63D-01  6.20D-01
                    CP:  3.76D-01  6.57D-01  8.57D-01  7.15D-01  6.18D-01
                    CP:  5.82D-01  6.87D-01  8.27D-01  7.34D-01  7.43D-01
                    CP:  9.76D-01
 E= -2238.38391605373     Delta-E=        0.000000000006 Rises=F Damp=F
 DIIS: error= 1.11D-07 at cycle  17 NSaved=  17.
 NSaved=17 IEnMin=16 EnMin= -2238.38391605374     IErMin=17 ErrMin= 1.11D-07
 ErrMax= 1.11D-07  0.00D+00 EMaxC= 1.00D-01 BMatC= 2.06D-11 BMatP= 1.36D-10
 IDIUse=1 WtCom= 1.00D+00 WtEn= 0.00D+00
 Coeff-Com: -0.222D-05 0.159D-05-0.331D-07 0.386D-06 0.102D-05-0.339D-05
 Coeff-Com: -0.972D-04-0.438D-03-0.652D-03-0.204D-02-0.386D-02-0.578D-02
 Coeff-Com: -0.260D-02 0.331D-01 0.179D+00 0.369D+00 0.434D+00
 Coeff:     -0.222D-05 0.159D-05-0.331D-07 0.386D-06 0.102D-05-0.339D-05
 Coeff:     -0.972D-04-0.438D-03-0.652D-03-0.204D-02-0.386D-02-0.578D-02
 Coeff:     -0.260D-02 0.331D-01 0.179D+00 0.369D+00 0.434D+00
 Gap=     0.094 Goal=   None    Shift=    0.000
 RMSDP=1.21D-07 MaxDP=2.48D-05 DE= 6.37D-12 OVMax= 1.23D-06

 Cycle  18  Pass 1  IDiag  1:
 RMSU=  2.47D-08    CP:  4.82D-01 -1.39D-01  8.72D-01  3.63D-01  6.20D-01
                    CP:  3.76D-01  6.57D-01  8.57D-01  7.15D-01  6.18D-01
                    CP:  5.82D-01  6.88D-01  8.25D-01  7.50D-01  7.44D-01
                    CP:  9.64D-01  8.15D-01
 E= -2238.38391605386     Delta-E=       -0.000000000126 Rises=F Damp=F
 DIIS: error= 4.67D-08 at cycle  18 NSaved=  18.
 NSaved=18 IEnMin=18 EnMin= -2238.38391605386     IErMin=18 ErrMin= 4.67D-08
 ErrMax= 4.67D-08  0.00D+00 EMaxC= 1.00D-01 BMatC= 2.96D-12 BMatP= 2.06D-11
 IDIUse=1 WtCom= 1.00D+00 WtEn= 0.00D+00
 Coeff-Com: -0.563D-06 0.352D-06 0.115D-06 0.826D-07 0.904D-06-0.122D-05
 Coeff-Com: -0.334D-04-0.163D-03-0.247D-03-0.805D-03-0.159D-02-0.362D-02
 Coeff-Com: -0.471D-02 0.329D-02 0.574D-01 0.157D+00 0.311D+00 0.483D+00
 Coeff:     -0.563D-06 0.352D-06 0.115D-06 0.826D-07 0.904D-06-0.122D-05
 Coeff:     -0.334D-04-0.163D-03-0.247D-03-0.805D-03-0.159D-02-0.362D-02
 Coeff:     -0.471D-02 0.329D-02 0.574D-01 0.157D+00 0.311D+00 0.483D+00
 Gap=     0.094 Goal=   None    Shift=    0.000
 RMSDP=3.72D-08 MaxDP=1.13D-05 DE=-1.26D-10 OVMax= 3.34D-07

 Cycle  19  Pass 1  IDiag  1:
 RMSU=  7.51D-09    CP:  4.82D-01 -1.39D-01  8.72D-01  3.63D-01  6.20D-01
                    CP:  3.76D-01  6.57D-01  8.57D-01  7.15D-01  6.18D-01
                    CP:  5.82D-01  6.87D-01  8.28D-01  7.51D-01  7.55D-01
                    CP:  9.37D-01  7.67D-01  6.82D-01
 E= -2238.38391605390     Delta-E=       -0.000000000044 Rises=F Damp=F
 DIIS: error= 8.59D-09 at cycle  19 NSaved=  19.
 NSaved=19 IEnMin=19 EnMin= -2238.38391605390     IErMin=19 ErrMin= 8.59D-09
 ErrMax= 8.59D-09  0.00D+00 EMaxC= 1.00D-01 BMatC= 1.25D-13 BMatP= 2.96D-12
 IDIUse=1 WtCom= 1.00D+00 WtEn= 0.00D+00
 Coeff-Com: -0.184D-06 0.156D-06 0.594D-07 0.722D-08 0.416D-06-0.230D-06
 Coeff-Com: -0.108D-04-0.555D-04-0.859D-04-0.281D-03-0.563D-03-0.157D-02
 Coeff-Com: -0.242D-02-0.106D-02 0.167D-01 0.573D-01 0.136D+00 0.258D+00
 Coeff-Com:  0.539D+00
 Coeff:     -0.184D-06 0.156D-06 0.594D-07 0.722D-08 0.416D-06-0.230D-06
 Coeff:     -0.108D-04-0.555D-04-0.859D-04-0.281D-03-0.563D-03-0.157D-02
 Coeff:     -0.242D-02-0.106D-02 0.167D-01 0.573D-01 0.136D+00 0.258D+00
 Coeff:      0.539D+00
 Gap=     0.094 Goal=   None    Shift=    0.000
 RMSDP=7.31D-09 MaxDP=1.50D-06 DE=-4.37D-11 OVMax= 8.48D-08

 Cycle  20  Pass 1  IDiag  1:
 RMSU=  2.58D-09    CP:  4.82D-01 -1.39D-01  8.72D-01  3.63D-01  6.20D-01
                    CP:  3.76D-01  6.57D-01  8.57D-01  7.15D-01  6.18D-01
                    CP:  5.82D-01  6.87D-01  8.28D-01  7.50D-01  7.52D-01
                    CP:  9.38D-01  7.60D-01  6.90D-01  7.93D-01
 E= -2238.38391605395     Delta-E=       -0.000000000044 Rises=F Damp=F
 DIIS: error= 3.82D-09 at cycle  20 NSaved=  20.
 NSaved=20 IEnMin=20 EnMin= -2238.38391605395     IErMin=20 ErrMin= 3.82D-09
 ErrMax= 3.82D-09  0.00D+00 EMaxC= 1.00D-01 BMatC= 2.49D-14 BMatP= 1.25D-13
 IDIUse=1 WtCom= 1.00D+00 WtEn= 0.00D+00
 Coeff-Com: -0.506D-07 0.376D-07 0.970D-08 0.312D-08 0.204D-06-0.451D-08
 Coeff-Com: -0.282D-05-0.160D-04-0.259D-04-0.846D-04-0.175D-03-0.598D-03
 Coeff-Com: -0.101D-02-0.114D-02 0.412D-02 0.189D-01 0.521D-01 0.110D+00
 Coeff-Com:  0.374D+00 0.443D+00
 Coeff:     -0.506D-07 0.376D-07 0.970D-08 0.312D-08 0.204D-06-0.451D-08
 Coeff:     -0.282D-05-0.160D-04-0.259D-04-0.846D-04-0.175D-03-0.598D-03
 Coeff:     -0.101D-02-0.114D-02 0.412D-02 0.189D-01 0.521D-01 0.110D+00
 Coeff:      0.374D+00 0.443D+00
 Gap=     0.094 Goal=   None    Shift=    0.000
 RMSDP=3.22D-09 MaxDP=8.76D-07 DE=-4.37D-11 OVMax= 4.81D-08

 Error on total polarization charges =  0.01578
 SCF Done:  E(RB-P86) =  -2238.38391605     A.U. after   20 cycles
            NFock= 20  Conv=0.32D-08     -V/T= 2.0379
 KE= 2.156675651007D+03 PE=-1.534889414523D+04 EE= 5.883402940990D+03
 Leave Link  502 at Sat Mar  2 07:42:24 2024, MaxMem=  1073741824 cpu:            6389.1 elap:             403.4
 (Enter /usr/local/Gaussian/g16/l801.exe)
 DoSCS=F DFT=T ScalE2(SS,OS)=  1.000000  1.000000
 Range of M.O.s used for correlation:     1   754
 NBasis=   763 NAE=   148 NBE=   148 NFC=     0 NFV=     0
 NROrb=    754 NOA=   148 NOB=   148 NVA=   606 NVB=   606

 **** Warning!!: The largest alpha MO coefficient is  0.16920143D+03


 **** Warning!!: The smallest alpha delta epsilon is  0.94245202D-01

 Leave Link  801 at Sat Mar  2 07:42:24 2024, MaxMem=  1073741824 cpu:               0.5 elap:               0.1
 (Enter /usr/local/Gaussian/g16/l1101.exe)
 Using compressed storage, NAtomX=    72.
 Will process     73 centers per pass.
 PrsmSu:  requested number of processors reduced to:  14 ShMem   1 Linda.
   1 Symmetry operations used in ECPInt.
 ECPInt:  NShTT=   62481 NPrTT=  220738 LenC2=   53319 LenP2D=  124521.
 LDataN:  DoStor=T MaxTD1= 8 Len=  415
 Number of processors reduced to   3 by ecpmxn.
 Leave Link 1101 at Sat Mar  2 07:42:31 2024, MaxMem=  1073741824 cpu:              84.8 elap:               6.9
 (Enter /usr/local/Gaussian/g16/l1102.exe)
 Symmetrizing basis deriv contribution to polar:
 IMax=3 JMax=2 DiffMx= 0.00D+00
 Leave Link 1102 at Sat Mar  2 07:42:31 2024, MaxMem=  1073741824 cpu:               1.8 elap:               0.2
 (Enter /usr/local/Gaussian/g16/l1110.exe)
 Forming Jx(Pfit) for the SCF density, NAtomX=    72.
 Integral derivatives from FoFJK, PRISM(SPDF).
 Do as many integral derivatives as possible in FoFJK.
 G2DrvN: MDV=    1073733984.
 G2DrvN: will do    37 centers at a time, making    2 passes.
 G2DrvN:  IPasSy=1 do centers    0 through   36.
 Calling FoFCou, ICntrl=  3507 FMM=T I1Cent=   4 AccDes= 0.00D+00.
 FoFJK:  IHMeth= 1 ICntrl=    3507 DoSepK=F KAlg= 0 I1Cent=           4 FoldK=F
 IRaf=         0 NMat=       1 IRICut=       1 DoRegI=T DoRafI=F ISym2E= 0 IDoP0=0 IntGTp=1.
 FoFCou: FMM=F IPFlag=           0 FMFlag=      100000 FMFlg1=        2001
         NFxFlg=           0 DoJE=F BraDBF=F KetDBF=T FulRan=T
         wScrn=  0.000000 ICntrl=      3507 IOpCl=  0 I1Cent=           4 NGrid=           0
         NMat0=    1 NMatS0=      1 NMatT0=    0 NMatD0=    1 NMtDS0=    0 NMtDT0=    0
 Symmetry not used in FoFCou.
 CoulSu:  requested number of processors reduced to:  15 ShMem   1 Linda.
 Defaulting to unpruned grid for atomic number  44.
 Defaulting to unpruned grid for atomic number  44.
 Defaulting to unpruned grid for atomic number  44.
 Defaulting to unpruned grid for atomic number  44.
 Defaulting to unpruned grid for atomic number  44.
 Defaulting to unpruned grid for atomic number  44.
 Defaulting to unpruned grid for atomic number  44.
 Defaulting to unpruned grid for atomic number  44.
 Defaulting to unpruned grid for atomic number  44.
 Defaulting to unpruned grid for atomic number  44.
 Defaulting to unpruned grid for atomic number  44.
 Defaulting to unpruned grid for atomic number  44.
 Defaulting to unpruned grid for atomic number  44.
 Defaulting to unpruned grid for atomic number  44.
 Defaulting to unpruned grid for atomic number  44.
 Defaulting to unpruned grid for atomic number  44.
 G2DrvN:  IPasSy=1 do centers   37 through   72.
 Calling FoFCou, ICntrl=  3507 FMM=T I1Cent=   4 AccDes= 0.00D+00.
 CoulSu:  requested number of processors reduced to:  15 ShMem   1 Linda.
 NEqPCM:  Using equilibrium solvation (IEInf=0, Eps=   7.4257, EpsInf=   1.9740)
 G2PCM: DoFxE=T DoFxN=T DoGrad=T DoDP/DQ/DG/TGxP=FFFF NFrqRd=   0 IEInf=0 SqF1=F DoCFld=F IF1Alg=4.
 GePol: Maximum number of non-zero 1st derivatives   =     218
 Forming Jx(P-Pfit) for the SCF density, NAtomX=    72.
 Integral derivatives from FoFJK, PRISM(SPDF).
 Do as many integral derivatives as possible in FoFJK.
 G2DrvN: MDV=    1073733984.
 G2DrvN: will do    37 centers at a time, making    2 passes.
 G2DrvN:  IPasSy=1 do centers    0 through   36.
 Calling FoFCou, ICntrl=  3507 FMM=T I1Cent=1004 AccDes= 0.00D+00.
 G2DrvN:  IPasSy=1 do centers   37 through   72.
 Calling FoFCou, ICntrl=  3507 FMM=T I1Cent=1004 AccDes= 0.00D+00.
 FxDFit:  IM=    1 NDo=   80.
 FxDFit:  IM=   81 NDo=   80.
 FxDFit:  IM=  161 NDo=   59.
 End of G2Drv F.D. properties file   721 does not exist.
 End of G2Drv F.D. properties file   722 does not exist.
 End of G2Drv F.D. properties file   788 does not exist.
 Leave Link 1110 at Sat Mar  2 08:14:49 2024, MaxMem=  1073741824 cpu:           30944.4 elap:            1937.9
 (Enter /usr/local/Gaussian/g16/l1002.exe)
 Minotr:  Closed shell wavefunction.
          IDoAtm=11111111111111111111111111111111111111111111111111
          IDoAtm=1111111111111111111111
 NEqPCM:  Using equilibrium solvation (IEInf=0, Eps=   7.4257, EpsInf=   1.9740)
          Direct CPHF calculation.
          Differentiating once with respect to electric field.
                with respect to dipole field.
          Differentiating once with respect to nuclear coordinates.
          Requested convergence is 1.0D-08 RMS, and 1.0D-07 maximum.
          Secondary convergence is 1.0D-12 RMS, and 1.0D-12 maximum.
          NewPWx=T KeepS1=F KeepF1=F KeepIn=T MapXYZ=F SortEE=F KeepMc=T.
 Density fitting will be used, IDenFit= 2 NucTyp=  0.
 Defaulting to unpruned grid for atomic number  44.
        22542 words used for storage of precomputed grid.
 Two-electron integrals replicated using symmetry.
          MDV=    1073741824 using IRadAn=       1.
          Solving linear equations simultaneously, MaxMat=       0.
 FoFCou: FMM=F IPFlag=           0 FMFlag=      100000 FMFlg1=        2001
         NFxFlg=           0 DoJE=F BraDBF=T KetDBF=F FulRan=T
         wScrn=  0.000000 ICntrl=       500 IOpCl=  0 I1Cent=           5 NGrid=           0
         NMat0=   48 NMatS0=     48 NMatT0=    0 NMatD0=   48 NMtDS0=    0 NMtDT0=    0
 Integrals replicated using symmetry in FoFCou.
 FoFJK:  IHMeth= 1 ICntrl=     500 DoSepK=F KAlg= 0 I1Cent=           4 FoldK=F
 IRaf= 990000000 NMat=      48 IRICut=       1 DoRegI=T DoRafI=F ISym2E= 2 IDoP0=0 IntGTp=1.
 Defaulting to unpruned grid for atomic number  44.
 Defaulting to unpruned grid for atomic number  44.
 Defaulting to unpruned grid for atomic number  44.
 Defaulting to unpruned grid for atomic number  44.
 Defaulting to unpruned grid for atomic number  44.
 Defaulting to unpruned grid for atomic number  44.
 Defaulting to unpruned grid for atomic number  44.
 Defaulting to unpruned grid for atomic number  44.
 Defaulting to unpruned grid for atomic number  44.
 Defaulting to unpruned grid for atomic number  44.
 Defaulting to unpruned grid for atomic number  44.
 Defaulting to unpruned grid for atomic number  44.
 Defaulting to unpruned grid for atomic number  44.
 Defaulting to unpruned grid for atomic number  44.
 Defaulting to unpruned grid for atomic number  44.
 Defaulting to unpruned grid for atomic number  44.
          There are   219 degrees of freedom in the 1st order CPHF.  IDoFFX=6 NUNeed=     3.
    219 vectors produced by pass  0 Test12= 8.97D-14 1.00D-09 XBig12= 9.06D+02 7.88D+00.
 AX will form    48 AO Fock derivatives at one time.
    219 vectors produced by pass  1 Test12= 8.97D-14 1.00D-09 XBig12= 5.73D+02 5.26D+00.
    216 vectors produced by pass  2 Test12= 8.97D-14 1.00D-09 XBig12= 3.37D+00 9.28D-02.
    216 vectors produced by pass  3 Test12= 8.97D-14 1.00D-09 XBig12= 1.16D-02 5.59D-03.
    211 vectors produced by pass  4 Test12= 8.97D-14 1.00D-09 XBig12= 8.74D-06 1.50D-04.
     44 vectors produced by pass  5 Test12= 8.97D-14 1.00D-09 XBig12= 1.69D-09 1.64D-06.
      3 vectors produced by pass  6 Test12= 8.97D-14 1.00D-09 XBig12= 2.80D-13 1.79D-08.
 InvSVY:  IOpt=1 It=  1 EMax= 2.13D-14
 Solved reduced A of dimension  1128 with   219 vectors.
 FullF1:  Do perturbations      1 to       3.
 Isotropic polarizability for W=    0.000000      621.14 Bohr**3.
 End of Minotr F.D. properties file   721 does not exist.
 End of Minotr F.D. properties file   722 does not exist.
 End of Minotr F.D. properties file   788 does not exist.
 Leave Link 1002 at Sat Mar  2 08:59:11 2024, MaxMem=  1073741824 cpu:           42525.6 elap:            2661.8
 (Enter /usr/local/Gaussian/g16/l601.exe)
 Copying SCF densities to generalized density rwf, IOpCl= 0 IROHF=0.

 **********************************************************************

            Population analysis using the SCF Density.

 **********************************************************************

 Orbital symmetries:
       Occupied  (A) (A) (A) (A) (A) (A) (A) (A) (A) (A) (A) (A)
                 (A) (A) (A) (A) (A) (A) (A) (A) (A) (A) (A) (A)
                 (A) (A) (A) (A) (A) (A) (A) (A) (A) (A) (A) (A)
                 (A) (A) (A) (A) (A) (A) (A) (A) (A) (A) (A) (A)
                 (A) (A) (A) (A) (A) (A) (A) (A) (A) (A) (A) (A)
                 (A) (A) (A) (A) (A) (A) (A) (A) (A) (A) (A) (A)
                 (A) (A) (A) (A) (A) (A) (A) (A) (A) (A) (A) (A)
                 (A) (A) (A) (A) (A) (A) (A) (A) (A) (A) (A) (A)
                 (A) (A) (A) (A) (A) (A) (A) (A) (A) (A) (A) (A)
                 (A) (A) (A) (A) (A) (A) (A) (A) (A) (A) (A) (A)
                 (A) (A) (A) (A) (A) (A) (A) (A) (A) (A) (A) (A)
                 (A) (A) (A) (A) (A) (A) (A) (A) (A) (A) (A) (A)
                 (A) (A) (A) (A)
       Virtual   (A) (A) (A) (A) (A) (A) (A) (A) (A) (A) (A) (A)
                 (A) (A) (A) (A) (A) (A) (A) (A) (A) (A) (A) (A)
                 (A) (A) (A) (A) (A) (A) (A) (A) (A) (A) (A) (A)
                 (A) (A) (A) (A) (A) (A) (A) (A) (A) (A) (A) (A)
                 (A) (A) (A) (A) (A) (A) (A) (A) (A) (A) (A) (A)
                 (A) (A) (A) (A) (A) (A) (A) (A) (A) (A) (A) (A)
                 (A) (A) (A) (A) (A) (A) (A) (A) (A) (A) (A) (A)
                 (A) (A) (A) (A) (A) (A) (A) (A) (A) (A) (A) (A)
                 (A) (A) (A) (A) (A) (A) (A) (A) (A) (A) (A) (A)
                 (A) (A) (A) (A) (A) (A) (A) (A) (A) (A) (A) (A)
                 (A) (A) (A) (A) (A) (A) (A) (A) (A) (A) (A) (A)
                 (A) (A) (A) (A) (A) (A) (A) (A) (A) (A) (A) (A)
                 (A) (A) (A) (A) (A) (A) (A) (A) (A) (A) (A) (A)
                 (A) (A) (A) (A) (A) (A) (A) (A) (A) (A) (A) (A)
                 (A) (A) (A) (A) (A) (A) (A) (A) (A) (A) (A) (A)
                 (A) (A) (A) (A) (A) (A) (A) (A) (A) (A) (A) (A)
                 (A) (A) (A) (A) (A) (A) (A) (A) (A) (A) (A) (A)
                 (A) (A) (A) (A) (A) (A) (A) (A) (A) (A) (A) (A)
                 (A) (A) (A) (A) (A) (A) (A) (A) (A) (A) (A) (A)
                 (A) (A) (A) (A) (A) (A) (A) (A) (A) (A) (A) (A)
                 (A) (A) (A) (A) (A) (A) (A) (A) (A) (A) (A) (A)
                 (A) (A) (A) (A) (A) (A) (A) (A) (A) (A) (A) (A)
                 (A) (A) (A) (A) (A) (A) (A) (A) (A) (A) (A) (A)
                 (A) (A) (A) (A) (A) (A) (A) (A) (A) (A) (A) (A)
                 (A) (A) (A) (A) (A) (A) (A) (A) (A) (A) (A) (A)
                 (A) (A) (A) (A) (A) (A) (A) (A) (A) (A) (A) (A)
                 (A) (A) (A) (A) (A) (A) (A) (A) (A) (A) (A) (A)
                 (A) (A) (A) (A) (A) (A) (A) (A) (A) (A) (A) (A)
                 (A) (A) (A) (A) (A) (A) (A) (A) (A) (A) (A) (A)
                 (A) (A) (A) (A) (A) (A) (A) (A) (A) (A) (A) (A)
                 (A) (A) (A) (A) (A) (A) (A) (A) (A) (A) (A) (A)
                 (A) (A) (A) (A) (A) (A) (A) (A) (A) (A) (A) (A)
                 (A) (A) (A) (A) (A) (A) (A) (A) (A) (A) (A) (A)
                 (A) (A) (A) (A) (A) (A) (A) (A) (A) (A) (A) (A)
                 (A) (A) (A) (A) (A) (A) (A) (A) (A) (A) (A) (A)
                 (A) (A) (A) (A) (A) (A) (A) (A) (A) (A) (A) (A)
                 (A) (A) (A) (A) (A) (A) (A) (A) (A) (A) (A) (A)
                 (A) (A) (A) (A) (A) (A) (A) (A) (A) (A) (A) (A)
                 (A) (A) (A) (A) (A) (A) (A) (A) (A) (A) (A) (A)
                 (A) (A) (A) (A) (A) (A) (A) (A) (A) (A) (A) (A)
                 (A) (A) (A) (A) (A) (A) (A) (A) (A) (A) (A) (A)
                 (A) (A) (A) (A) (A) (A) (A) (A) (A) (A) (A) (A)
                 (A) (A) (A) (A) (A) (A) (A) (A) (A) (A) (A) (A)
                 (A) (A) (A) (A) (A) (A) (A) (A) (A) (A) (A) (A)
                 (A) (A) (A) (A) (A) (A) (A) (A) (A) (A) (A) (A)
                 (A) (A) (A) (A) (A) (A) (A) (A) (A) (A) (A) (A)
                 (A) (A) (A) (A) (A) (A) (A) (A) (A) (A) (A) (A)
                 (A) (A) (A) (A) (A) (A) (A) (A) (A) (A) (A) (A)
                 (A) (A) (A) (A) (A) (A) (A) (A) (A) (A) (A) (A)
                 (A) (A) (A) (A) (A) (A) (A) (A) (A) (A) (A) (A)
                 (A) (A) (A) (A) (A) (A)
 The electronic state is 1-A.
 Alpha  occ. eigenvalues --  -76.38879 -76.38876 -18.81088 -18.77486 -14.03980
 Alpha  occ. eigenvalues --  -13.98639  -9.98852  -9.98303  -9.94782  -9.93849
 Alpha  occ. eigenvalues --   -9.93806  -9.93611  -9.93451  -9.93360  -9.93334
 Alpha  occ. eigenvalues --   -9.93311  -9.93131  -9.93019  -9.93010  -9.92917
 Alpha  occ. eigenvalues --   -9.92890  -9.92827  -9.92823  -9.92815  -9.92787
 Alpha  occ. eigenvalues --   -9.92785  -9.92777  -9.92729  -9.92722  -9.92681
 Alpha  occ. eigenvalues --   -9.92679  -9.92671  -9.92621  -9.92620  -9.92600
 Alpha  occ. eigenvalues --   -9.92517  -9.92399  -6.34930  -6.34911  -4.57113
 Alpha  occ. eigenvalues --   -4.57093  -4.57092  -4.57078  -4.56781  -4.56754
 Alpha  occ. eigenvalues --   -2.86518  -1.74869  -1.74510  -1.73552  -0.97413
 Alpha  occ. eigenvalues --   -0.94305  -0.82131  -0.79537  -0.78092  -0.78005
 Alpha  occ. eigenvalues --   -0.77465  -0.77452  -0.71536  -0.70169  -0.68261
 Alpha  occ. eigenvalues --   -0.67595  -0.67452  -0.67387  -0.67298  -0.67159
 Alpha  occ. eigenvalues --   -0.67126  -0.64896  -0.61233  -0.59298  -0.58182
 Alpha  occ. eigenvalues --   -0.55144  -0.54722  -0.54544  -0.54460  -0.53977
 Alpha  occ. eigenvalues --   -0.53861  -0.53502  -0.52723  -0.50271  -0.50154
 Alpha  occ. eigenvalues --   -0.48532  -0.47029  -0.46951  -0.46898  -0.45881
 Alpha  occ. eigenvalues --   -0.45707  -0.44845  -0.43158  -0.42422  -0.42157
 Alpha  occ. eigenvalues --   -0.41481  -0.41328  -0.41092  -0.40858  -0.40563
 Alpha  occ. eigenvalues --   -0.40476  -0.40367  -0.40062  -0.39827  -0.39294
 Alpha  occ. eigenvalues --   -0.38981  -0.38249  -0.38100  -0.37965  -0.37809
 Alpha  occ. eigenvalues --   -0.37642  -0.37547  -0.36779  -0.36458  -0.36423
 Alpha  occ. eigenvalues --   -0.35826  -0.35324  -0.34786  -0.34578  -0.34099
 Alpha  occ. eigenvalues --   -0.33922  -0.33696  -0.33616  -0.33535  -0.33322
 Alpha  occ. eigenvalues --   -0.32357  -0.31881  -0.31498  -0.31248  -0.31039
 Alpha  occ. eigenvalues --   -0.30910  -0.30768  -0.30138  -0.29932  -0.29483
 Alpha  occ. eigenvalues --   -0.29342  -0.28800  -0.25978  -0.25435  -0.24927
 Alpha  occ. eigenvalues --   -0.24411  -0.24189  -0.24003  -0.23891  -0.23783
 Alpha  occ. eigenvalues --   -0.23699  -0.23134  -0.22196  -0.21019  -0.20847
 Alpha  occ. eigenvalues --   -0.19613  -0.18365  -0.16220
 Alpha virt. eigenvalues --   -0.06795  -0.06501  -0.06274  -0.05790  -0.05550
 Alpha virt. eigenvalues --   -0.05317  -0.04811  -0.04669  -0.03287  -0.01330
 Alpha virt. eigenvalues --   -0.01205  -0.00666  -0.00293  -0.00095   0.01014
 Alpha virt. eigenvalues --    0.01290   0.01961   0.02872   0.03211   0.03696
 Alpha virt. eigenvalues --    0.04154   0.04625   0.05040   0.05224   0.05828
 Alpha virt. eigenvalues --    0.06474   0.06834   0.06992   0.07245   0.07538
 Alpha virt. eigenvalues --    0.07772   0.07952   0.08379   0.08589   0.08788
 Alpha virt. eigenvalues --    0.09240   0.09750   0.09823   0.09974   0.10147
 Alpha virt. eigenvalues --    0.10720   0.10779   0.10853   0.11152   0.11210
 Alpha virt. eigenvalues --    0.11746   0.12102   0.12235   0.12478   0.12807
 Alpha virt. eigenvalues --    0.13040   0.13327   0.13525   0.13961   0.14057
 Alpha virt. eigenvalues --    0.14360   0.14767   0.15399   0.15623   0.16015
 Alpha virt. eigenvalues --    0.16457   0.16716   0.17236   0.17872   0.18338
 Alpha virt. eigenvalues --    0.18829   0.19059   0.19568   0.20153   0.20694
 Alpha virt. eigenvalues --    0.21038   0.21349   0.22062   0.22535   0.23240
 Alpha virt. eigenvalues --    0.23634   0.23945   0.24321   0.24560   0.24680
 Alpha virt. eigenvalues --    0.24899   0.25125   0.25344   0.25500   0.25565
 Alpha virt. eigenvalues --    0.26085   0.26502   0.27192   0.27460   0.27862
 Alpha virt. eigenvalues --    0.28342   0.29337   0.29665   0.30392   0.31479
 Alpha virt. eigenvalues --    0.32951   0.33409   0.33691   0.34275   0.34575
 Alpha virt. eigenvalues --    0.35009   0.35139   0.35458   0.36184   0.36506
 Alpha virt. eigenvalues --    0.37144   0.37942   0.38567   0.38730   0.38912
 Alpha virt. eigenvalues --    0.39176   0.39564   0.40038   0.40180   0.40750
 Alpha virt. eigenvalues --    0.41106   0.41149   0.41563   0.41833   0.41955
 Alpha virt. eigenvalues --    0.42588   0.42777   0.42948   0.43380   0.43499
 Alpha virt. eigenvalues --    0.43716   0.43925   0.44248   0.44584   0.44787
 Alpha virt. eigenvalues --    0.44968   0.45031   0.45281   0.45517   0.45586
 Alpha virt. eigenvalues --    0.46020   0.46735   0.47037   0.47494   0.47717
 Alpha virt. eigenvalues --    0.48669   0.48812   0.49630   0.49958   0.50436
 Alpha virt. eigenvalues --    0.51115   0.51498   0.51582   0.51830   0.51957
 Alpha virt. eigenvalues --    0.52632   0.52975   0.53695   0.53883   0.54480
 Alpha virt. eigenvalues --    0.54721   0.55175   0.55599   0.55840   0.56365
 Alpha virt. eigenvalues --    0.56669   0.56772   0.56946   0.57768   0.58110
 Alpha virt. eigenvalues --    0.58556   0.58857   0.58981   0.59281   0.59471
 Alpha virt. eigenvalues --    0.59767   0.59788   0.59928   0.60254   0.60518
 Alpha virt. eigenvalues --    0.60702   0.60982   0.61111   0.61766   0.62014
 Alpha virt. eigenvalues --    0.62304   0.62338   0.62895   0.63113   0.63217
 Alpha virt. eigenvalues --    0.63495   0.63765   0.63914   0.64160   0.64279
 Alpha virt. eigenvalues --    0.64668   0.65017   0.65135   0.65385   0.65702
 Alpha virt. eigenvalues --    0.65921   0.66121   0.66515   0.66711   0.67096
 Alpha virt. eigenvalues --    0.67261   0.67712   0.68069   0.68254   0.68463
 Alpha virt. eigenvalues --    0.68636   0.68966   0.69485   0.69727   0.69889
 Alpha virt. eigenvalues --    0.69905   0.70600   0.70771   0.71140   0.71825
 Alpha virt. eigenvalues --    0.72428   0.72789   0.73104   0.73304   0.73509
 Alpha virt. eigenvalues --    0.74016   0.74183   0.74801   0.74980   0.75618
 Alpha virt. eigenvalues --    0.75845   0.76532   0.76725   0.76895   0.78149
 Alpha virt. eigenvalues --    0.78693   0.79210   0.79405   0.80193   0.80393
 Alpha virt. eigenvalues --    0.81184   0.81390   0.81815   0.82431   0.82748
 Alpha virt. eigenvalues --    0.83614   0.84242   0.84875   0.85404   0.85838
 Alpha virt. eigenvalues --    0.86263   0.87361   0.87949   0.88091   0.88598
 Alpha virt. eigenvalues --    0.89092   0.90066   0.91269   0.91743   0.91933
 Alpha virt. eigenvalues --    0.92630   0.92924   0.93116   0.94308   0.94663
 Alpha virt. eigenvalues --    0.95719   0.96257   0.98296   0.98535   0.99052
 Alpha virt. eigenvalues --    0.99781   1.00933   1.01689   1.02994   1.03524
 Alpha virt. eigenvalues --    1.03714   1.04845   1.05482   1.05752   1.06340
 Alpha virt. eigenvalues --    1.07607   1.09189   1.09426   1.09806   1.10641
 Alpha virt. eigenvalues --    1.11076   1.11811   1.12290   1.12499   1.13116
 Alpha virt. eigenvalues --    1.14212   1.14432   1.14865   1.15268   1.15956
 Alpha virt. eigenvalues --    1.17113   1.17278   1.17700   1.17861   1.18065
 Alpha virt. eigenvalues --    1.18418   1.18634   1.18981   1.19329   1.19668
 Alpha virt. eigenvalues --    1.20096   1.20633   1.21409   1.21634   1.21699
 Alpha virt. eigenvalues --    1.22727   1.22887   1.23411   1.23602   1.24036
 Alpha virt. eigenvalues --    1.24817   1.25028   1.25845   1.26432   1.26681
 Alpha virt. eigenvalues --    1.26852   1.27361   1.27725   1.28662   1.29029
 Alpha virt. eigenvalues --    1.29693   1.30522   1.31407   1.31704   1.32183
 Alpha virt. eigenvalues --    1.32604   1.33861   1.35687   1.37933   1.38914
 Alpha virt. eigenvalues --    1.41135   1.43875   1.44969   1.45946   1.46516
 Alpha virt. eigenvalues --    1.46952   1.47776   1.48649   1.49955   1.50538
 Alpha virt. eigenvalues --    1.51893   1.52401   1.52789   1.55035   1.55392
 Alpha virt. eigenvalues --    1.56872   1.57905   1.58799   1.59086   1.59685
 Alpha virt. eigenvalues --    1.59862   1.59941   1.60387   1.61312   1.61518
[...]
 0002181,-0.00005003,0.00013558,0.00000952,0.00000186,-0.00002855,0.000
 03434,-0.00001539,0.00001595,0.00000581,0.00000539,-0.00002383,0.00001
 345,-0.00000450,-0.00001105,0.00002547,0.00000749,-0.00009592,0.000001
 32,0.00002203,-0.00002775,-0.00001208,0.00001406,0.00000339,0.00000808
 ,-0.00000069,-0.00002475,0.00006203,-0.00017697,-0.00002719,0.00001094
 ,0.00000932,-0.00001389,0.00010529,-0.00000167,0.00002293,-0.00001187,
 -0.00001193,-0.00001353,0.00000887,-0.00000322,0.00000046,0.00000564,-
 0.00000377,0.00000045,-0.00000657,-0.00002872,0.00000911,-0.00000306,0
 .00000478,-0.00000111,-0.00002726,0.00005290,-0.00033450,0.00000616,0.
 00000312,0.00000768,-0.00000543,0.00000302,-0.00000948,0.00000791,0.00
 000470,-0.00000308,-0.00000171,-0.00000339,0.00000251,-0.00000230,-0.0
 0000397,-0.00000512,-0.00000484,-0.00001012,-0.00000234,-0.00003673,0.
 00004719,0.00002197,-0.00002171,-0.00000200,-0.00000163,-0.00000788,-0
 .00000959,-0.00000135,0.00000088,0.00000902,-0.00001924,0.00000501,-0.
 00000525,-0.00000048,0.00000306,-0.00000395,0.00000081,-0.00002936,-0.
 00002229,-0.00003294,-0.00001962,0.00001378,-0.00000059,0.00000029,0.0
 0000751,-0.00000448,0.00000362,0.00000528,-0.00000152,-0.00000747,-0.0
 0001512,-0.00000129,-0.00000298,-0.00000613,0.00000144,0.00000081,-0.0
 0000717,-0.00000869,-0.00000265,0.00000258,0.00000144,0.00000636,0.000
 00248,0.00000056,0.00000188,0.00000365,0.00000121,0.00000789,0.0000065
 6,-0.00000771,-0.00000107,-0.00000358,0.00000591,-0.00009431,-0.000099
 45,-0.00004586,0.00029875,-0.00025574,-0.00046676,0.00225091,-0.003189
 28,0.00242233,-0.00828019,-0.00171804,-0.00025141,0.00038647,-0.000542
 71,0.00012004,-0.00094647,0.00101325,0.00046823,0.00768488,0.00365039,
 -0.04539962,-0.00556140,-0.00223706,0.04348498,0.00039829,0.00009911,-
 0.00139400,0.00040596,-0.00010691,-0.00010726,-0.00043487,0.00013910,-
 0.00017755,0.00000592,-0.00018212,0.00012207,0.00000814,0.00003149,-0.
 00032943,-0.00006634,0.00000269,0.00000312,-0.00011175,-0.00012259,0.0
 0003380,0.00003380,0.00001873,0.00000820,0.00002262,-0.00001596,-0.000
 04673,-0.00002405,0.00001655,-0.00002144,0.00002335,-0.00003644,0.0000
 2693,0.00009128,0.00002782,0.00011195,-0.00006962,0.00005212,0.0000463
 1,0.00001618,0.00000696,-0.00001355,-0.00000120,0.00000205,0.00000149,
 -0.00000387,-0.00002419,-0.00003476,-0.00000674,0.00001575,0.00000274,
 -0.00010089,0.00000269,-0.00016260,-0.00006299,0.00002836,-0.00001312,
 -0.00002829,0.00011028,-0.00006203,0.00009898,0.00005009,0.00016169,0.
 00001396,-0.00007048,0.00003226,-0.00000729,0.00003101,-0.00000876,-0.
 00000898,-0.00000789,0.00001880,-0.00000874,-0.00001142,0.00000552,0.0
 0007560,-0.00002938,0.00000840,0.00006107,-0.00009579,0.00000916,0.000
 00390,0.00000699,-0.00002833,-0.00002000,0.00002532,0.00002688,0.00003
 227,-0.00003976,0.00000294,0.00000340,0.00000050,-0.00000886,0.0000476
 9,-0.00004051,-0.00001447,-0.00000302,0.00000079,-0.00000193,-0.000012
 63,0.00000750,-0.00000037,-0.00000516,0.00000452,-0.00000017,0.0000129
 4,0.00002291,-0.00000857,-0.00000085,-0.00000494,0.00000002,-0.0000144
 0,-0.00008031,0.00055446,-0.00001493,-0.00000667,-0.00000213,0.0000097
 1,0.00000385,0.00001368,-0.00001355,-0.00001615,0.00000165,0.00000102,
 0.00000378,-0.00000387,-0.00000674,-0.00000577,0.00000652,0.00000051,0
 .00000218,0.00000127,0.00000920,0.00001747,0.00001034,0.00000131,-0.00
 000382,-0.00000252,0.00001322,-0.00000325,0.00000428,-0.00000311,-0.00
 000079,0.00000102,-0.00000932,0.00000806,0.00000350,-0.00000410,0.0000
 0358,0.00000080,-0.00000019,-0.00001571,-0.00001246,-0.00000018,0.0000
 0176,-0.00000060,-0.00000189,-0.00002194,0.00000594,-0.00001058,-0.000
 00445,-0.00000166,0.00000142,0.00000752,-0.00000704,0.00000059,0.00000
 140,-0.00000027,0.00000813,0.00000702,0.00000610,-0.00000194,-0.000000
 92,-0.00000361,-0.00001255,-0.00001337,0.00000010,-0.00000414,-0.00000
 057,-0.00000166,-0.00000558,0.00000118,0.00000387,-0.00000032,0.000001
 91,-0.00000225,-0.00005831,0.00049736,0.00032389,0.00046107,-0.0022462
 2,-0.00122469,-0.00159376,0.00284766,0.00479750,0.00086647,0.01356102,
 -0.02527223,0.00019628,-0.00018542,0.00006030,0.00124732,-0.00027162,-
 0.00052670,-0.05480753,-0.02128060,0.05109703,-0.00324762,-0.00854796,
 0.02452253,0.05640886,-0.00054644,-0.00026736,0.00148359,-0.00054922,0
 .00025923,0.00010077,0.00046161,0.00015712,0.00006985,0.00006281,-0.00
 009140,-0.00023689,-0.00000658,-0.00005170,0.00045524,0.00007902,0.000
 00090,-0.00001045,0.00014284,0.00004466,0.00009184,-0.00003405,-0.0000
 3144,-0.00009154,-0.00000990,-0.00005218,-0.00000211,0.00003263,-0.000
 02338,0.00002686,-0.00002470,0.00004542,-0.00003100,-0.00011217,-0.000
 05681,-0.00002809,0.00011318,-0.00007346,-0.00006277,-0.00002421,-0.00
 002654,0.00003017,0.00000374,0.00000866,-0.00000149,0.00001368,0.00002
 385,0.00005704,-0.00000024,-0.00001217,-0.00000249,-0.00000844,0.00000
 203,-0.00001189,0.00007222,-0.00000497,-0.00004594,-0.00010037,-0.0000
 0788,-0.00005003,0.00003402,0.00002759,0.00007620,-0.00001226,-0.00002
 779,-0.00002505,0.00006482,-0.00002810,-0.00000906,0.00001400,-0.00000
 800,-0.00002640,-0.00001794,0.00001941,0.00002255,-0.00006839,0.000047
 47,-0.00002697,-0.00014733,0.00007457,0.00010431,0.00001147,-0.0000498
 7,0.00000061,0.00002705,-0.00002320,-0.00007370,-0.00000270,-0.0000197
 0,-0.00001468,-0.00000232,0.00000547,0.00001082,0.00001216,0.00003927,
 0.00003479,0.00000282,-0.00000840,-0.00000227,0.00001578,-0.00000877,0
 .00000055,0.00000793,-0.00000635,0.00000071,-0.00001595,-0.00003685,0.
 00001141,-0.00000235,0.00000834,-0.00000026,-0.00001019,0.00011086,-0.
 00071825,0.00002193,0.00000879,-0.00000302,-0.00001408,-0.00000480,-0.
 00001629,0.00001693,0.00001667,-0.00000330,-0.00000163,-0.00000648,0.0
 0000548,0.00000953,0.00000436,-0.00000725,-0.00000222,-0.00000847,-0.0
 0000178,-0.00002410,0.00001194,0.00000030,-0.00001080,0.00000468,0.000
 00283,-0.00002102,-0.00001799,-0.00000814,0.00000507,0.00000528,-0.000
 00679,0.00001258,-0.00001261,-0.00000280,0.00000564,-0.00000544,-0.000
 00030,-0.00002423,0.00000890,-0.00000374,-0.00000725,0.00000201,0.0000
 0255,-0.00000313,0.00001769,-0.00001033,0.00000984,0.00000832,0.000000
 86,-0.00000585,-0.00001699,0.00000665,-0.00000220,-0.00000362,0.000001
 19,-0.00000822,-0.00000581,-0.00000967,0.00000185,0.00000313,0.0000060
 9,0.00001505,0.00001395,0.00000275,0.00000486,0.00000286,0.00000211,0.
 00000668,0.00000185,-0.00000211,-0.00000091,-0.00000441,0.00000467,0.0
 0012214,-0.00052172,-0.00031953,-0.00054048,0.00280314,0.00208644,0.00
 184016,-0.00180289,-0.00809329,0.00144188,-0.01647846,0.02720903,-0.00
 015807,0.00048681,0.00043286,-0.00034050,0.00084757,-0.00084860,-0.019
 92593,-0.07448094,0.08287134,-0.00158966,-0.00380254,0.00936957,0.0150
 8097,0.08388714,0.00005366,0.00039800,-0.00080654,0.00030309,-0.000121
 12,-0.00000606,-0.00024283,-0.00009296,-0.00002006,0.00003538,0.000422
 19,0.00014614,0.00000253,0.00004764,-0.00031091,-0.00004612,-0.0000122
 7,0.00000774,-0.00022412,-0.00007514,-0.00016684,0.00001504,-0.0000199
 6,0.00008378,0.00003419,0.00007271,0.00002408,-0.00001353,0.00001246,-
 0.00001197,0.00001013,-0.00002485,0.00001205,0.00005203,0.00001187,0.0
 0000186,-0.00005315,0.00003832,0.00002108,0.00001311,0.00001345,-0.000
 01592,-0.00000595,-0.00000724,-0.00000006,-0.00000249,-0.00001148,-0.0
 0003162,0.00000322,0.00000955,0.00000244,0.00001347,0.00001033,0.00002
 838,-0.00002464,-0.00001750,0.00005628,0.00005793,-0.00002875,0.000007
 08,-0.00000754,0.00004689,-0.00000104,0.00001318,0.00001095,0.00000918
 ,-0.00006403,0.00000367,0.00001676,-0.00001332,0.00001035,0.00001206,0
 .00002219,0.00000247,-0.00002245,0.00002847,-0.00002204,0.00000952,0.0
 0022085,-0.00011198,-0.00015322,-0.00002686,0.00007641,0.00001190,-0.0
 0001566,-0.00000778,0.00006935,0.00000766,0.00001990,0.00000667,-0.000
 00416,-0.00000123,0.00000267,0.00000397,-0.00002461,-0.00001464,-0.000
 00101,0.00000488,0.00000389,-0.00000881,0.00000381,-0.00000059,-0.0000
 0497,0.00000400,-0.00000061,0.00000733,0.00002552,-0.00000759,0.000002
 28,-0.00000425,0.00000087,0.00001503,-0.00006378,0.00046982,-0.0000179
 4,-0.00000185,0.00000389,0.00000945,0.00000089,0.00001120,-0.00000929,
 -0.00000722,0.00000389,0.00000134,0.00000330,-0.00000243,-0.00000342,-
 0.00000146,0.00000076,0.00000151,0.00000510,0.00000137,0.00001255,0.00
 000136,0.00000554,0.00000822,-0.00000083,-0.00000106,0.00001236,0.0000
 1273,0.00000515,-0.00000409,-0.00000392,0.00000544,-0.00000622,0.00000
 673,0.00000053,-0.00000301,0.00000311,-0.00000014,0.00000111,-0.000003
 45,-0.00000100,0.00000561,-0.00000304,-0.00000139,0.00000234,-0.000009
 26,0.00000411,-0.00000846,-0.00000408,-0.00000013,0.00000323,0.0000100
 7,-0.00000256,0.00000127,0.00000304,-0.00000101,0.00000268,0.00000187,
 0.00000523,-0.00000017,-0.00000174,-0.00000268,-0.00000654,-0.00000883
 ,-0.00000236,-0.00000327,-0.00000155,-0.00000215,-0.00000320,-0.000002
 13,0.00000097,0.00000055,0.00000280,-0.00000325,-0.00001678,0.00017903
 ,0.00013492,0.00007034,0.00022547,0.00005481,-0.00068370,-0.00103644,0
 .00277134,-0.00268754,0.00508205,-0.00344347,-0.00023151,-0.00079156,-
 0.00014739,-0.00025794,0.00016929,0.00056724,0.04863890,0.08439288,-0.
 25740186,-0.00079734,-0.00157420,0.00125928,-0.04888569,-0.09515332,0.
 27233690,0.00007589,-0.00005767,0.00003972,0.00013896,-0.00003189,0.00
 013468,-0.00014495,-0.00002363,-0.00012609,0.00053044,0.00226139,0.000
 57627,0.00000065,0.00004153,-0.00017513,-0.00001913,-0.00001331,-0.000
 01305,-0.00058690,0.00016422,-0.00029328,0.00001700,0.00000185,0.00008
 802,0.00020713,0.00026811,0.00010957,-0.00000575,0.00000260,-0.0000056
 9,0.00000159,-0.00000983,0.00000639,0.00001163,-0.00000440,-0.00000285
 ,-0.00000442,0.00002125,-0.00000724,0.00001244,0.00000316,-0.00000252,
 -0.00001081,0.00000258,0.00000377,-0.00000528,-0.00000562,-0.00000528,
 0.00000508,0.00000980,0.00000036,0.00000989,0.00000784,0.00000042,0.00
 001964,-0.00000025,0.00001173,-0.00009315,0.00003502,0.00001563,0.0001
 9047,0.00015513,0.00005682,0.00003611,-0.00008970,0.00002360,-0.000056
 42,-0.00002880,0.00002139,-0.00002100,0.00001244,-0.00000757,0.0000237
 3,0.00001998,-0.00002751,0.00001858,0.00000004,0.00005227,0.00050193,-
 0.00010840,-0.00028107,-0.00010408,0.00023676,0.00006762,-0.00001474,-
 0.00000746,0.00007093,0.00000637,0.00001467,-0.00000437,-0.00000413,0.
 00000109,0.00001274,0.00001974,-0.00000509,-0.00000018,0.00000237,0.00
 000381,0.00000189,-0.00000354,0.00000196,0.00000014,-0.00000248,0.0000
 0212,-0.00000006,0.00000514,0.00001205,-0.00000553,0.00000142,-0.00000
 136,0.00000167,-0.00000760,-0.00004063,0.00009581,-0.00001511,-0.00000
 796,-0.00000388,0.00000262,0.00000290,0.00000308,-0.00000209,-0.000002
 25,0.00000297,0.00000094,0.00000133,-0.00000042,-0.00000057,-0.0000002
 5,-0.00000016,0.00000020,0.00000084,0.00000047,0.00000368,0.00000659,0
 .00000778,0.00000280,0.,0.00000103,-0.00000613,-0.00001231,-0.00000005
 ,0.00000047,-0.00000059,0.00000250,-0.00000298,0.00000276,-0.00000008,
 -0.00000121,0.00000153,-0.00000016,-0.00001447,0.00000548,-0.00000560,
 -0.00000020,-0.00000238,0.00000167,0.00000137,-0.00000822,0.00000383,-
 0.00000665,-0.00000058,-0.00000032,0.00000007,0.00000269,0.00000013,0.
 00000034,0.00000081,-0.00000021,0.00000169,-0.00000375,-0.00000491,-0.
 00000262,-0.00000079,-0.00000246,-0.00000547,-0.00000999,-0.00000536,-
 0.00000311,0.00000039,-0.00000215,-0.00000194,-0.00000059,0.00000632,-
 0.00000042,-0.00000098,-0.00000034,-0.00000884,0.00003292,0.00002259,-
 0.00047600,-0.00135952,-0.00030759,0.00028461,-0.00040167,0.00226317,0
 .00022770,0.02484307,0.01424575,-0.00252825,-0.00289247,-0.00214944,0.
 00062095,0.00006868,0.00055629,-0.04702019,-0.02079538,-0.01825322,-0.
 00073865,-0.01866762,-0.01887181,0.00020754,0.00460913,0.00469912,0.04
 872807,0.00011925,0.00041899,0.00020185,-0.00017079,0.00003094,-0.0002
 2751,0.00019212,-0.00005895,-0.00026653,-0.00089937,-0.00279616,-0.000
 72127,-0.00000148,-0.00005032,0.00027651,0.00002367,0.00001740,0.00002
 104,0.00062445,-0.00009939,0.00048564,-0.00002034,0.00000292,-0.000071
 50,-0.00022107,-0.00028473,-0.00007281,0.00001587,-0.00000638,0.000007
 43,-0.00000753,0.00001218,-0.00001008,-0.00001864,-0.00003843,-0.00001
 839,-0.00000305,-0.00002197,0.00001206,-0.00001699,-0.00001092,-0.0000
 0540,0.00001737,0.00001649,0.00000804,0.00000558,0.00000188,0.00000885
 ,-0.00001208,-0.00000811,0.00000237,0.00000314,0.00001001,0.00006115,0
 .00001828,-0.00003741,0.00002416,-0.00010444,-0.00005170,-0.00007916,0
 .00010470,0.00007490,0.00004734,-0.00003317,-0.00002795,0.00002048,0.0
 0008886,0.00004356,-0.00003896,0.00002975,-0.00002160,0.00001618,-0.00
 005714,-0.00000964,0.00004916,-0.00002617,0.00003062,0.00004365,-0.000
 59003,0.00019035,0.00035253,0.00013881,-0.00027375,-0.00007283,0.00002
 680,0.00000438,-0.00008686,0.00000907,0.00002937,-0.00001021,-0.000008
 76,0.00000738,0.00001583,0.00000647,0.00002526,0.00002501,0.00001025,0
 .00000021,0.00000006,0.00000510,-0.00000250,0.00000045,0.00000392,-0.0
 0000325,-0.00000030,-0.00000796,-0.00001817,0.00000833,-0.00000296,0.0
 0000278,-0.00000249,0.00001852,0.00005206,-0.00019582,0.00001764,0.000
 01045,-0.00000275,0.00000202,-0.00000473,0.00000322,0.00000567,0.00000
 258,-0.00000213,-0.00000027,-0.00000365,0.00000052,0.00000362,0.000007
 27,0.00000965,-0.00000030,-0.00000316,-0.00000172,-0.00000106,0.000006
 22,0.00000412,-0.00000232,0.00000363,0.00000238,-0.00001431,-0.0000193
 2,-0.00000808,0.00000319,0.00000211,-0.00000097,0.00000478,-0.00000539
 ,0.00000007,0.00000223,-0.00000285,0.00000021,-0.00002077,0.00000930,0
 .00000170,-0.00000019,-0.00000111,0.00000290,-0.00000345,0.00000239,0.
 00000202,0.00000438,0.00000229,0.00000002,-0.00000183,-0.00000740,0.00
 000541,-0.00000082,-0.00000308,0.00000219,-0.00000100,0.00000865,0.000
 00661,0.00000474,0.00000177,0.00000536,0.00000834,0.00000857,0.0000043
 4,0.00000350,0.00000105,0.00000222,-0.00000121,-0.00000367,0.00000631,
 -0.00000083,-0.00000397,0.00000356,-0.00003669,-0.00013199,-0.00007630
 ,-0.00075426,0.00343463,0.00148506,-0.00006381,-0.00148316,-0.00592237
 ,0.00421504,-0.02922552,-0.01165361,0.00374963,0.00518623,0.00206847,-
 0.00024323,0.00046036,0.00058077,-0.01841735,-0.17074792,-0.12394543,-
 0.00020179,-0.00645738,-0.00672830,0.00074388,0.00907953,0.00790675,0.
 01173679,0.19272691,-0.00022803,0.00003061,0.00005759,-0.00027472,0.00
 011058,0.00006316,0.00022461,0.00006384,0.00009516,0.00016868,0.000309
 26,-0.00013370,-0.00000418,-0.00002216,0.00016723,0.00004326,-0.000001
 50,0.00000246,0.00000990,0.00008553,-0.00004378,-0.00001202,-0.0000038
 0,0.00001437,0.00002584,-0.00000928,0.00004711,0.00001679,-0.00001433,
 0.00001497,-0.00001570,0.00002738,-0.00002122,-0.00007268,-0.00002301,
 -0.00002440,0.00005307,-0.00004192,-0.00003567,-0.00000740,-0.00000613
 ,0.00001752,0.00000243,0.00000157,-0.00000147,0.00000005,0.00002400,0.
 00002313,0.00000175,-0.00000756,-0.00000136,0.00002758,-0.00001840,0.0
 0002629,0.00004142,0.00001067,-0.00003132,-0.00000292,0.00004047,0.000
 00746,-0.00002622,-0.00005515,-0.00002007,-0.00000248,0.00001822,-0.00
 001817,0.00003138,-0.00002537,-0.00000018,0.00000246,0.00000006,-0.000
 01687,0.00000304,0.00000188,-0.00000841,-0.00003165,0.00001725,-0.0000
 0492,-0.00001193,0.00002455,-0.00001921,-0.00001555,-0.00001265,0.0000
 4103,0.00000608,-0.00000716,0.00000713,-0.00000593,-0.00000661,-0.0000
 1760,0.00000545,0.00000275,0.00000487,-0.00000295,0.00002447,0.0000079
 3,0.00000031,-0.00000286,-0.00000240,0.00000799,-0.00000507,0.00000074
 ,0.00000409,-0.00000308,-0.00000016,-0.00000917,-0.00001659,0.00000553
 ,-0.00000049,0.00000390,-0.00000095,0.00000433,0.00008696,-0.00026468,
 0.00000603,0.00000315,0.00000439,-0.00001379,-0.00000454,-0.00001805,0
 .00001080,0.00001171,-0.00000311,-0.00000177,-0.00000289,0.00000334,0.
 00000115,0.00000404,-0.00000654,-0.00000102,-0.00000340,-0.00000124,-0
 .00001418,0.00000040,-0.00000219,-0.00000570,0.00000118,0.00000199,-0.
 00001200,-0.00000848,-0.00000535,0.00000481,0.00000281,-0.00000311,0.0
 0000609,-0.00000655,-0.00000180,0.00000320,-0.00000306,-0.00000060,-0.
 00001008,0.00000838,-0.00000264,-0.00000583,0.00000094,0.00000226,-0.0
 0000148,0.00001250,-0.00000721,0.00000784,0.00000252,-0.00000031,-0.00
 000203,-0.00000727,0.00000464,-0.00000054,-0.00000228,0.00000043,-0.00
 000578,-0.00000457,-0.00000832,-0.00000103,0.,0.00000277,0.00000459,0.
 00000924,0.00000261,0.00000409,0.00000084,0.00000214,0.00000314,0.0000
 0194,-0.00000138,-0.00000026,-0.00000263,0.00000267,0.00006516,-0.0003
 2898,-0.00004258,0.00009462,-0.00024405,0.00073820,-0.00012818,0.00085
 518,-0.00080247,0.00333485,0.00704377,0.00966904,-0.00103498,0.0007047
 7,-0.00103721,0.00019451,-0.00060908,0.00047455,-0.01705056,-0.1287240
 3,-0.16683122,0.00089015,0.00287786,0.00151189,-0.00365574,-0.01862052
 ,-0.01559318,0.01735745,0.13642979,0.17201050\\0.00000023,-0.00000103,
 0.00000142,-0.00000029,0.00000008,-0.00000092,-0.00000112,0.00000262,-
 0.00000104,0.,-0.00000095,-0.00000019,-0.00000048,-0.00000090,0.000000
 24,-0.00000054,-0.00000098,0.00000096,0.00000021,0.00000135,-0.0000003
 1,0.00000026,0.00000095,-0.00000036,-0.00000007,0.00000108,-0.00000006
 ,-0.00000130,-0.00000136,-0.00000110,-0.00000121,-0.00000066,-0.000000
 43,-0.00000010,0.00000117,-0.00000029,0.00000053,-0.00000136,0.0000001
 7,-0.00000259,0.00000224,-0.00000123,-0.00000069,0.00000173,-0.0000010
 7,0.00000048,-0.00000143,0.00000105,0.00000078,-0.00000152,0.00000104,
 -0.00000615,0.00000302,-0.00001197,0.00000057,0.00000043,0.00000007,0.
 00000047,0.00000066,-0.00000063,0.00000177,0.00000159,0.00000039,-0.00
 000013,0.00000282,-0.00000085,0.00000023,-0.00000095,0.00000002,0.0000
 0008,-0.00000083,0.00000031,0.00000077,-0.00000047,0.00000074,0.000000
 62,0.00000062,-0.00000063,-0.00000037,0.00000015,0.00000014,-0.0000000
 8,0.00000015,-0.00000005,0.00000035,0.00000026,0.00000003,0.00000093,0
 .00000090,0.00000020,0.00000111,0.00000080,0.00000043,0.00000049,0.000
 00211,-0.00000075,0.00000009,0.00000216,-0.00000073,-0.00000127,-0.000
 00210,-0.00000010,-0.00000130,-0.00000249,0.00000006,-0.00000067,-0.00
 000167,0.00000067,-0.00000041,-0.00000195,0.00000045,-0.00000010,-0.00
 000071,-0.00000040,0.00000040,-0.00000194,0.00000092,0.00000002,-0.000
 00169,0.00000059,-0.00000174,-0.00000145,-0.00000065,-0.00000212,-0.00
 000130,-0.00000094,-0.00000155,0.00000164,-0.00000151,-0.00000161,0.00
 000191,-0.00000179,0.00000054,0.00000212,-0.00000032,0.00000056,0.0000
 0256,-0.00000055,0.00000014,0.00000023,-0.00000095,-0.00000070,0.00000
 051,-0.00000081,-0.00000175,-0.00000193,-0.00000046,-0.00000217,-0.000
 00218,-0.00000063,0.00000079,0.00000167,-0.00000008,0.00000107,0.00000
 189,0.00000002,0.00000095,-0.00000218,0.00000142,0.00000123,-0.0000023
 5,0.00000167,-0.00000177,0.00000138,-0.00000168,-0.00000220,0.00000144
 ,-0.00000198,0.00000052,-0.00000230,0.00000118,0.00000047,-0.00000254,
 0.00000123,0.00000091,-0.00000251,0.00000148,0.00000109,-0.00000289,0.
 00000177,-0.00000171,0.00000101,-0.00000141,-0.00000184,0.00000076,-0.
 00000149,-0.00000054,-0.00000003,-0.00000029,0.00000011,-0.00000055,0.
 00000029,0.00001307,-0.00001182,0.00000948,0.00000152,0.00000035,-0.00
 000151,0.00000121,0.00000315,0.00000199,0.00000148,-0.00000082,0.00000
 005,0.00000350,0.00000242,-0.00000123,-0.00000504,0.00000823,0.0000078
 3,0.00000284,0.00000172,0.00000141,0.00000122,-0.00000002,0.00000168\\
 \@
 The archive entry for this job was punched.


 THERE IS SOMETHING FASCINATING ABOUT SCIENCE.
 ONE GETS SUCH WHOLESALE CONJECTURE OUT OF SUCH TRIFLING INVESTMENTS.

                                                       -- MARK TWAIN
 Job cpu time:       1 days  0 hours 42 minutes 27.9 seconds.
 Elapsed time:       0 days  1 hours 32 minutes 54.1 seconds.
 File lengths (MBytes):  RWF=   4701 Int=      0 D2E=      0 Chk=    213 Scr=      1
 Normal termination of Gaussian 16 at Sat Mar  2 11:19:12 2024.
