 Entering Gaussian System, Link 0=g16
 Input=spiro-TS-RR_R.com
 Output=spiro-TS-RR_R.log
 Initial command:
 /gpfs1/apps/software/Gaussian16/AVX2/g16/l1.exe "/tmp/ag266/222014/Gau-68804.inp" -scrdir="/tmp/ag266/222014/"
 Entering Link 1 = /gpfs1/apps/software/Gaussian16/AVX2/g16/l1.exe PID=     68806.
  
 Copyright (c) 1988-2019, Gaussian, Inc.  All Rights Reserved.
  
 This is part of the Gaussian(R) 16 program.  It is based on
 the Gaussian(R) 09 system (copyright 2009, Gaussian, Inc.),
 the Gaussian(R) 03 system (copyright 2003, Gaussian, Inc.),
 the Gaussian(R) 98 system (copyright 1998, Gaussian, Inc.),
 the Gaussian(R) 94 system (copyright 1995, Gaussian, Inc.),
 the Gaussian 92(TM) system (copyright 1992, Gaussian, Inc.),
 the Gaussian 90(TM) system (copyright 1990, Gaussian, Inc.),
 the Gaussian 88(TM) system (copyright 1988, Gaussian, Inc.),
 the Gaussian 86(TM) system (copyright 1986, Carnegie Mellon
 University), and the Gaussian 82(TM) system (copyright 1983,
 Carnegie Mellon University). Gaussian is a federally registered
 trademark of Gaussian, Inc.
  
 This software contains proprietary and confidential information,
 including trade secrets, belonging to Gaussian, Inc.
  
 This software is provided under written license and may be
 used, copied, transmitted, or stored only in accord with that
 written license.
  
 The following legend is applicable only to US Government
 contracts under FAR:
  
                    RESTRICTED RIGHTS LEGEND
  
 Use, reproduction and disclosure by the US Government is
 subject to restrictions as set forth in subparagraphs (a)
 and (c) of the Commercial Computer Software - Restricted
 Rights clause in FAR 52.227-19.
  
 Gaussian, Inc.
 340 Quinnipiac St., Bldg. 40, Wallingford CT 06492
  
  
 ---------------------------------------------------------------
 Warning -- This program may not be used in any manner that
 competes with the business of Gaussian, Inc. or will provide
 assistance to any competitor of Gaussian, Inc.  The licensee
 of this program is prohibited from giving any competitor of
 Gaussian, Inc. access to this program.  By using this program,
 the user acknowledges that Gaussian, Inc. is engaged in the
 business of creating and licensing software in the field of
 computational chemistry and represents and warrants to the
 licensee that it is not a competitor of Gaussian, Inc. and that
 it will not use this program in any manner prohibited above.
 ---------------------------------------------------------------
  

 Cite this work as:
 Gaussian 16, Revision C.01,
 M. J. Frisch, G. W. Trucks, H. B. Schlegel, G. E. Scuseria, 
 M. A. Robb, J. R. Cheeseman, G. Scalmani, V. Barone, 
 G. A. Petersson, H. Nakatsuji, X. Li, M. Caricato, A. V. Marenich, 
 J. Bloino, B. G. Janesko, R. Gomperts, B. Mennucci, H. P. Hratchian, 
 J. V. Ortiz, A. F. Izmaylov, J. L. Sonnenberg, D. Williams-Young, 
 F. Ding, F. Lipparini, F. Egidi, J. Goings, B. Peng, A. Petrone, 
 T. Henderson, D. Ranasinghe, V. G. Zakrzewski, J. Gao, N. Rega, 
 G. Zheng, W. Liang, M. Hada, M. Ehara, K. Toyota, R. Fukuda, 
 J. Hasegawa, M. Ishida, T. Nakajima, Y. Honda, O. Kitao, H. Nakai, 
 T. Vreven, K. Throssell, J. A. Montgomery, Jr., J. E. Peralta, 
 F. Ogliaro, M. J. Bearpark, J. J. Heyd, E. N. Brothers, K. N. Kudin, 
 V. N. Staroverov, T. A. Keith, R. Kobayashi, J. Normand, 
 K. Raghavachari, A. P. Rendell, J. C. Burant, S. S. Iyengar, 
 J. Tomasi, M. Cossi, J. M. Millam, M. Klene, C. Adamo, R. Cammi, 
 J. W. Ochterski, R. L. Martin, K. Morokuma, O. Farkas, 
 J. B. Foresman, and D. J. Fox, Gaussian, Inc., Wallingford CT, 2019.
 
 ******************************************
 Gaussian 16:  ES64L-G16RevC.01  3-Jul-2019
                26-Sep-2023 
 ******************************************
 %NProc=16
 Will use up to   16 processors via shared memory.
 %mem=16GB
 %chk=spiro-TS-RR_R.chk
 ----------------------------------------------------------------------
 #P RM062X/gen opt=(TS,CalcFC,NoEigentest) freq scrf=(smd,solvent=Dichl
 oromethane)
 ----------------------------------------------------------------------
 1/5=1,10=4,11=1,18=20,26=3,38=1/1,3;
 2/9=110,12=2,17=6,18=5,40=1/2;
 3/5=7,11=2,25=1,30=1,70=32201,71=2,72=9,74=-55,116=1,140=1/1,2,3;
 4//1;
 5/5=2,38=5,53=9/2;
 8/6=4,10=90,11=11/1;
 11/6=1,8=1,9=11,15=111,16=1/1,2,10;
 10/6=1,13=1/2;
 6/7=2,8=2,9=2,10=2,28=1/1;
 7/10=1,25=1/1,2,3,16;
 1/5=1,10=4,11=1,18=20,26=3/3(2);
 2/9=110/2;
 99//99;
 2/9=110/2;
 3/5=7,6=1,11=2,25=1,30=1,70=32205,71=1,72=9,74=-55,82=7,116=1/1,2,3;
 4/5=5,16=3,69=1/1;
 5/5=2,38=5,53=9/2;
 7//1,2,3,16;
 1/5=1,11=1,18=20,26=3/3(-5);
 2/9=110/2;
 6/7=2,8=2,9=2,10=2,19=2,28=1/1;
 99/9=1/99;
 Leave Link    1 at Tue Sep 26 15:16:32 2023, MaxMem=  2147483648 cpu:               1.0 elap:               0.1
 (Enter /gpfs1/apps/software/Gaussian16/AVX2/g16/l101.exe)
 -----------------------------
 spiro-TS-RR_R ; M062X/def2SVP
 -----------------------------
 Symbolic Z-matrix:
 Charge =  0 Multiplicity = 1
 O                    -0.61262  -1.83554  -0.29067 
 C                    -0.95068  -0.79414   0.23252 
 N                    -2.21823  -0.3034    0.40992 
 C                    -3.45501  -0.87223   0.02754 
 C                    -3.50977  -2.11834  -0.61346 
 C                    -4.74703  -2.64277  -0.98365 
 C                    -5.92832  -1.94985  -0.72442 
 C                    -5.86352  -0.7121   -0.08485 
 C                    -4.63835  -0.16871   0.29158 
 N                    -2.22433   0.88794   1.1369 
 C                    -1.02155   1.24115   1.38964 
 C                    -0.67396   2.42109   2.22226 
 C                    -0.02552   0.29159   0.7795 
 O                     1.01025  -0.15187   1.63485 
 C                     2.03411   0.24552   0.71566 
 N                     2.34328  -1.49859  -0.05648 
 H                     1.44802  -1.86798  -0.39533 
 C                     3.32097  -1.3629   -1.1358 
 C                     3.8422   -2.72116  -1.58486 
 O                     4.36382  -3.44504  -0.49789 
 C                     3.39125  -3.65897   0.49735 
 C                     2.85362  -2.33889   1.02901 
 O                     3.11454   0.64444   1.07842 
 C                     0.99147   0.81531  -0.28687 
 C                     0.97668   2.28739  -0.60241 
 C                     1.9958    3.16016  -0.20962 
 C                     1.90123   4.52268  -0.50397 
 C                     0.79361   5.0243   -1.18478 
 C                    -0.22403   4.15484  -1.58497 
 C                    -0.12828   2.79544  -1.30064 
 H                    -2.59573  -2.669    -0.8174 
 H                    -4.77998  -3.61329  -1.48189 
 H                    -6.89117  -2.37051  -1.01748 
 H                    -6.77807  -0.15526   0.12682 
 H                    -4.58782   0.79701   0.78984 
 H                     0.05688   2.1225    2.98805 
 H                    -1.5757    2.81793   2.70392 
 H                    -0.21156   3.21018   1.61049 
 H                     4.14732  -0.75297  -0.73851 
 H                     2.86152  -0.82422  -1.97752 
 H                     4.65042  -2.59452  -2.3178 
 H                     3.02489  -3.29303  -2.06784 
 H                     3.866    -4.22952   1.30695 
 H                     2.55767  -4.26571   0.09097 
 H                     3.65918  -1.77013   1.51968 
 H                     2.04576  -2.49928   1.75506 
 H                     0.92231   0.23541  -1.21807 
 H                     2.85572   2.76766   0.33224 
 H                     2.70168   5.19624  -0.19234 
 H                     0.72208   6.09044  -1.40704 
 H                    -1.09375   4.53782  -2.12173 
 H                    -0.92822   2.11603  -1.60966 
 
 Add virtual bond connecting atoms N16        and C15        Dist= 3.65D+00.
 Add virtual bond connecting atoms H17        and O1         Dist= 3.90D+00.
 ITRead=  0  0  0  0  0  0  0  0  0  0  0  0  0  0  0  0  0  0  0  0
 ITRead=  0  0  0  0  0  0  0  0  0  0  0  0  0  0  0  0  0  0  0  0
 ITRead=  0  0  0  0  0  0  0  0  0  0  0  0
 MicOpt= -1 -1 -1 -1 -1 -1 -1 -1 -1 -1 -1 -1 -1 -1 -1 -1 -1 -1 -1 -1
 MicOpt= -1 -1 -1 -1 -1 -1 -1 -1 -1 -1 -1 -1 -1 -1 -1 -1 -1 -1 -1 -1
 MicOpt= -1 -1 -1 -1 -1 -1 -1 -1 -1 -1 -1 -1
 NAtoms=     52 NQM=       52 NQMF=       0 NMMI=      0 NMMIF=      0
                NMic=       0 NMicF=      0.
                    Isotopes and Nuclear Properties:
 (Nuclear quadrupole moments (NQMom) in fm**2, nuclear magnetic moments (NMagM)
  in nuclear magnetons)

  Atom         1           2           3           4           5           6           7           8           9          10
 IAtWgt=          16          12          14          12          12          12          12          12          12          14
 AtmWgt=  15.9949146  12.0000000  14.0030740  12.0000000  12.0000000  12.0000000  12.0000000  12.0000000  12.0000000  14.0030740
 NucSpn=           0           0           2           0           0           0           0           0           0           2
 AtZEff=   0.0000000   0.0000000   0.0000000   0.0000000   0.0000000   0.0000000   0.0000000   0.0000000   0.0000000   0.0000000
 NQMom=    0.0000000   0.0000000   2.0440000   0.0000000   0.0000000   0.0000000   0.0000000   0.0000000   0.0000000   2.0440000
 NMagM=    0.0000000   0.0000000   0.4037610   0.0000000   0.0000000   0.0000000   0.0000000   0.0000000   0.0000000   0.4037610
 AtZNuc=   8.0000000   6.0000000   7.0000000   6.0000000   6.0000000   6.0000000   6.0000000   6.0000000   6.0000000   7.0000000

  Atom        11          12          13          14          15          16          17          18          19          20
 IAtWgt=          12          12          12          16          12          14           1          12          12          16
 AtmWgt=  12.0000000  12.0000000  12.0000000  15.9949146  12.0000000  14.0030740   1.0078250  12.0000000  12.0000000  15.9949146
 NucSpn=           0           0           0           0           0           2           1           0           0           0
 AtZEff=   0.0000000   0.0000000   0.0000000   0.0000000   0.0000000   0.0000000   0.0000000   0.0000000   0.0000000   0.0000000
 NQMom=    0.0000000   0.0000000   0.0000000   0.0000000   0.0000000   2.0440000   0.0000000   0.0000000   0.0000000   0.0000000
 NMagM=    0.0000000   0.0000000   0.0000000   0.0000000   0.0000000   0.4037610   2.7928460   0.0000000   0.0000000   0.0000000
 AtZNuc=   6.0000000   6.0000000   6.0000000   8.0000000   6.0000000   7.0000000   1.0000000   6.0000000   6.0000000   8.0000000

  Atom        21          22          23          24          25          26          27          28          29          30
 IAtWgt=          12          12          16          12          12          12          12          12          12          12
 AtmWgt=  12.0000000  12.0000000  15.9949146  12.0000000  12.0000000  12.0000000  12.0000000  12.0000000  12.0000000  12.0000000
 NucSpn=           0           0           0           0           0           0           0           0           0           0
 AtZEff=   0.0000000   0.0000000   0.0000000   0.0000000   0.0000000   0.0000000   0.0000000   0.0000000   0.0000000   0.0000000
 NQMom=    0.0000000   0.0000000   0.0000000   0.0000000   0.0000000   0.0000000   0.0000000   0.0000000   0.0000000   0.0000000
 NMagM=    0.0000000   0.0000000   0.0000000   0.0000000   0.0000000   0.0000000   0.0000000   0.0000000   0.0000000   0.0000000
 AtZNuc=   6.0000000   6.0000000   8.0000000   6.0000000   6.0000000   6.0000000   6.0000000   6.0000000   6.0000000   6.0000000

  Atom        31          32          33          34          35          36          37          38          39          40
 IAtWgt=           1           1           1           1           1           1           1           1           1           1
 AtmWgt=   1.0078250   1.0078250   1.0078250   1.0078250   1.0078250   1.0078250   1.0078250   1.0078250   1.0078250   1.0078250
 NucSpn=           1           1           1           1           1           1           1           1           1           1
 AtZEff=   0.0000000   0.0000000   0.0000000   0.0000000   0.0000000   0.0000000   0.0000000   0.0000000   0.0000000   0.0000000
 NQMom=    0.0000000   0.0000000   0.0000000   0.0000000   0.0000000   0.0000000   0.0000000   0.0000000   0.0000000   0.0000000
 NMagM=    2.7928460   2.7928460   2.7928460   2.7928460   2.7928460   2.7928460   2.7928460   2.7928460   2.7928460   2.7928460
 AtZNuc=   1.0000000   1.0000000   1.0000000   1.0000000   1.0000000   1.0000000   1.0000000   1.0000000   1.0000000   1.0000000

  Atom        41          42          43          44          45          46          47          48          49          50
 IAtWgt=           1           1           1           1           1           1           1           1           1           1
 AtmWgt=   1.0078250   1.0078250   1.0078250   1.0078250   1.0078250   1.0078250   1.0078250   1.0078250   1.0078250   1.0078250
 NucSpn=           1           1           1           1           1           1           1           1           1           1
 AtZEff=   0.0000000   0.0000000   0.0000000   0.0000000   0.0000000   0.0000000   0.0000000   0.0000000   0.0000000   0.0000000
 NQMom=    0.0000000   0.0000000   0.0000000   0.0000000   0.0000000   0.0000000   0.0000000   0.0000000   0.0000000   0.0000000
 NMagM=    2.7928460   2.7928460   2.7928460   2.7928460   2.7928460   2.7928460   2.7928460   2.7928460   2.7928460   2.7928460
 AtZNuc=   1.0000000   1.0000000   1.0000000   1.0000000   1.0000000   1.0000000   1.0000000   1.0000000   1.0000000   1.0000000

  Atom        51          52
 IAtWgt=           1           1
 AtmWgt=   1.0078250   1.0078250
 NucSpn=           1           1
 AtZEff=   0.0000000   0.0000000
 NQMom=    0.0000000   0.0000000
 NMagM=    2.7928460   2.7928460
 AtZNuc=   1.0000000   1.0000000
 Leave Link  101 at Tue Sep 26 15:16:35 2023, MaxMem=  2147483648 cpu:              12.4 elap:               0.8
 (Enter /gpfs1/apps/software/Gaussian16/AVX2/g16/l103.exe)

 GradGradGradGradGradGradGradGradGradGradGradGradGradGradGradGradGradGrad
 Berny optimization.
 Initialization pass.
                           ----------------------------
                           !    Initial Parameters    !
                           ! (Angstroms and Degrees)  !
 --------------------------                            --------------------------
 ! Name  Definition              Value          Derivative Info.                !
 --------------------------------------------------------------------------------
 ! R1    R(1,2)                  1.2135         calculate D2E/DX2 analytically  !
 ! R2    R(1,17)                 2.0636         calculate D2E/DX2 analytically  !
 ! R3    R(2,3)                  1.3708         calculate D2E/DX2 analytically  !
 ! R4    R(2,13)                 1.5277         calculate D2E/DX2 analytically  !
 ! R5    R(3,4)                  1.414          calculate D2E/DX2 analytically  !
 ! R6    R(3,10)                 1.3957         calculate D2E/DX2 analytically  !
 ! R7    R(4,5)                  1.4024         calculate D2E/DX2 analytically  !
 ! R8    R(4,9)                  1.4018         calculate D2E/DX2 analytically  !
 ! R9    R(5,6)                  1.3939         calculate D2E/DX2 analytically  !
 ! R10   R(5,31)                 1.0864         calculate D2E/DX2 analytically  !
 ! R11   R(6,7)                  1.3938         calculate D2E/DX2 analytically  !
 ! R12   R(6,32)                 1.0914         calculate D2E/DX2 analytically  !
 ! R13   R(7,8)                  1.3947         calculate D2E/DX2 analytically  !
 ! R14   R(7,33)                 1.0908         calculate D2E/DX2 analytically  !
 ! R15   R(8,9)                  1.3921         calculate D2E/DX2 analytically  !
 ! R16   R(8,34)                 1.0915         calculate D2E/DX2 analytically  !
 ! R17   R(9,35)                 1.0879         calculate D2E/DX2 analytically  !
 ! R18   R(10,11)                1.2788         calculate D2E/DX2 analytically  !
 ! R19   R(11,12)                1.4854         calculate D2E/DX2 analytically  !
 ! R20   R(11,13)                1.5053         calculate D2E/DX2 analytically  !
 ! R21   R(12,36)                1.0999         calculate D2E/DX2 analytically  !
 ! R22   R(12,37)                1.0966         calculate D2E/DX2 analytically  !
 ! R23   R(12,38)                1.1003         calculate D2E/DX2 analytically  !
 ! R24   R(13,14)                1.4146         calculate D2E/DX2 analytically  !
 ! R25   R(13,24)                1.5639         calculate D2E/DX2 analytically  !
 ! R26   R(14,15)                1.4322         calculate D2E/DX2 analytically  !
 ! R27   R(15,16)                1.9323         calculate D2E/DX2 analytically  !
 ! R28   R(15,23)                1.2075         calculate D2E/DX2 analytically  !
 ! R29   R(15,24)                1.5546         calculate D2E/DX2 analytically  !
 ! R30   R(16,17)                1.026          calculate D2E/DX2 analytically  !
 ! R31   R(16,18)                1.4626         calculate D2E/DX2 analytically  !
 ! R32   R(16,22)                1.4645         calculate D2E/DX2 analytically  !
 ! R33   R(18,19)                1.5226         calculate D2E/DX2 analytically  !
 ! R34   R(18,39)                1.1012         calculate D2E/DX2 analytically  !
 ! R35   R(18,40)                1.0999         calculate D2E/DX2 analytically  !
 ! R36   R(19,20)                1.4063         calculate D2E/DX2 analytically  !
 ! R37   R(19,41)                1.0984         calculate D2E/DX2 analytically  !
 ! R38   R(19,42)                1.1083         calculate D2E/DX2 analytically  !
 ! R39   R(20,21)                1.4079         calculate D2E/DX2 analytically  !
 ! R40   R(21,22)                1.5213         calculate D2E/DX2 analytically  !
 ! R41   R(21,43)                1.0983         calculate D2E/DX2 analytically  !
 ! R42   R(21,44)                1.1082         calculate D2E/DX2 analytically  !
 ! R43   R(22,45)                1.1014         calculate D2E/DX2 analytically  !
 ! R44   R(22,46)                1.098          calculate D2E/DX2 analytically  !
 ! R45   R(24,25)                1.5056         calculate D2E/DX2 analytically  !
 ! R46   R(24,47)                1.0992         calculate D2E/DX2 analytically  !
 ! R47   R(25,26)                1.3981         calculate D2E/DX2 analytically  !
 ! R48   R(25,30)                1.4023         calculate D2E/DX2 analytically  !
 ! R49   R(26,27)                1.3972         calculate D2E/DX2 analytically  !
 ! R50   R(26,48)                1.0896         calculate D2E/DX2 analytically  !
 ! R51   R(27,28)                1.3935         calculate D2E/DX2 analytically  !
 ! R52   R(27,49)                1.0916         calculate D2E/DX2 analytically  !
 ! R53   R(28,29)                1.397          calculate D2E/DX2 analytically  !
 ! R54   R(28,50)                1.0914         calculate D2E/DX2 analytically  !
 ! R55   R(29,30)                1.3921         calculate D2E/DX2 analytically  !
 ! R56   R(29,51)                1.0914         calculate D2E/DX2 analytically  !
 ! R57   R(30,52)                1.0941         calculate D2E/DX2 analytically  !
 ! A1    A(2,1,17)             108.2736         calculate D2E/DX2 analytically  !
 ! A2    A(1,2,3)              128.3637         calculate D2E/DX2 analytically  !
 ! A3    A(1,2,13)             126.5529         calculate D2E/DX2 analytically  !
 ! A4    A(3,2,13)             105.024          calculate D2E/DX2 analytically  !
 ! A5    A(2,3,4)              129.0349         calculate D2E/DX2 analytically  !
 ! A6    A(2,3,10)             112.1513         calculate D2E/DX2 analytically  !
 ! A7    A(4,3,10)             118.7133         calculate D2E/DX2 analytically  !
 ! A8    A(3,4,5)              121.0115         calculate D2E/DX2 analytically  !
 ! A9    A(3,4,9)              119.0481         calculate D2E/DX2 analytically  !
 ! A10   A(5,4,9)              119.9396         calculate D2E/DX2 analytically  !
 ! A11   A(4,5,6)              119.3644         calculate D2E/DX2 analytically  !
 ! A12   A(4,5,31)             120.2209         calculate D2E/DX2 analytically  !
 ! A13   A(6,5,31)             120.4146         calculate D2E/DX2 analytically  !
 ! A14   A(5,6,7)              121.0544         calculate D2E/DX2 analytically  !
 ! A15   A(5,6,32)             118.8544         calculate D2E/DX2 analytically  !
 ! A16   A(7,6,32)             120.091          calculate D2E/DX2 analytically  !
 ! A17   A(6,7,8)              119.1498         calculate D2E/DX2 analytically  !
 ! A18   A(6,7,33)             120.4241         calculate D2E/DX2 analytically  !
 ! A19   A(8,7,33)             120.4261         calculate D2E/DX2 analytically  !
 ! A20   A(7,8,9)              120.7486         calculate D2E/DX2 analytically  !
 ! A21   A(7,8,34)             120.1833         calculate D2E/DX2 analytically  !
 ! A22   A(9,8,34)             119.068          calculate D2E/DX2 analytically  !
 ! A23   A(4,9,8)              119.7431         calculate D2E/DX2 analytically  !
 ! A24   A(4,9,35)             119.5108         calculate D2E/DX2 analytically  !
 ! A25   A(8,9,35)             120.7461         calculate D2E/DX2 analytically  !
 ! A26   A(3,10,11)            109.5485         calculate D2E/DX2 analytically  !
 ! A27   A(10,11,12)           123.3869         calculate D2E/DX2 analytically  !
 ! A28   A(10,11,13)           111.5922         calculate D2E/DX2 analytically  !
 ! A29   A(12,11,13)           124.992          calculate D2E/DX2 analytically  !
 ! A30   A(11,12,36)           109.2759         calculate D2E/DX2 analytically  !
 ! A31   A(11,12,37)           109.9527         calculate D2E/DX2 analytically  !
 ! A32   A(11,12,38)           110.8768         calculate D2E/DX2 analytically  !
 ! A33   A(36,12,37)           109.8045         calculate D2E/DX2 analytically  !
 ! A34   A(36,12,38)           107.6113         calculate D2E/DX2 analytically  !
 ! A35   A(37,12,38)           109.2832         calculate D2E/DX2 analytically  !
 ! A36   A(2,13,11)            101.112          calculate D2E/DX2 analytically  !
 ! A37   A(2,13,14)            115.9197         calculate D2E/DX2 analytically  !
 ! A38   A(2,13,24)            112.8101         calculate D2E/DX2 analytically  !
 ! A39   A(11,13,14)           115.921          calculate D2E/DX2 analytically  !
 ! A40   A(11,13,24)           119.6971         calculate D2E/DX2 analytically  !
 ! A41   A(14,13,24)            92.3577         calculate D2E/DX2 analytically  !
 ! A42   A(13,14,15)            92.7731         calculate D2E/DX2 analytically  !
 ! A43   A(14,15,16)            96.9151         calculate D2E/DX2 analytically  !
 ! A44   A(14,15,23)           122.5828         calculate D2E/DX2 analytically  !
 ! A45   A(14,15,24)            92.0702         calculate D2E/DX2 analytically  !
 ! A46   A(16,15,23)           105.9666         calculate D2E/DX2 analytically  !
 ! A47   A(16,15,24)           100.3954         calculate D2E/DX2 analytically  !
 ! A48   A(23,15,24)           132.2797         calculate D2E/DX2 analytically  !
 ! A49   A(15,16,17)           108.5011         calculate D2E/DX2 analytically  !
 ! A50   A(15,16,18)           108.5481         calculate D2E/DX2 analytically  !
 ! A51   A(15,16,22)           106.1097         calculate D2E/DX2 analytically  !
 ! A52   A(17,16,18)           111.8971         calculate D2E/DX2 analytically  !
 ! A53   A(17,16,22)           110.0145         calculate D2E/DX2 analytically  !
 ! A54   A(18,16,22)           111.5459         calculate D2E/DX2 analytically  !
 ! A55   A(1,17,16)            148.0918         calculate D2E/DX2 analytically  !
 ! A56   A(16,18,19)           111.3292         calculate D2E/DX2 analytically  !
 ! A57   A(16,18,39)           106.6637         calculate D2E/DX2 analytically  !
 ! A58   A(16,18,40)           109.3256         calculate D2E/DX2 analytically  !
 ! A59   A(19,18,39)           110.0965         calculate D2E/DX2 analytically  !
 ! A60   A(19,18,40)           110.7449         calculate D2E/DX2 analytically  !
 ! A61   A(39,18,40)           108.5592         calculate D2E/DX2 analytically  !
 ! A62   A(18,19,20)           110.9909         calculate D2E/DX2 analytically  !
 ! A63   A(18,19,41)           110.2342         calculate D2E/DX2 analytically  !
 ! A64   A(18,19,42)           109.6567         calculate D2E/DX2 analytically  !
 ! A65   A(20,19,41)           107.589          calculate D2E/DX2 analytically  !
 ! A66   A(20,19,42)           110.1677         calculate D2E/DX2 analytically  !
 ! A67   A(41,19,42)           108.1392         calculate D2E/DX2 analytically  !
 ! A68   A(19,20,21)           111.6155         calculate D2E/DX2 analytically  !
 ! A69   A(20,21,22)           111.059          calculate D2E/DX2 analytically  !
 ! A70   A(20,21,43)           107.5419         calculate D2E/DX2 analytically  !
 ! A71   A(20,21,44)           110.0953         calculate D2E/DX2 analytically  !
 ! A72   A(22,21,43)           110.2369         calculate D2E/DX2 analytically  !
 ! A73   A(22,21,44)           109.7192         calculate D2E/DX2 analytically  !
 ! A74   A(43,21,44)           108.1207         calculate D2E/DX2 analytically  !
 ! A75   A(16,22,21)           111.2231         calculate D2E/DX2 analytically  !
 ! A76   A(16,22,45)           106.7837         calculate D2E/DX2 analytically  !
 ! A77   A(16,22,46)           108.5139         calculate D2E/DX2 analytically  !
 ! A78   A(21,22,45)           110.2001         calculate D2E/DX2 analytically  !
 ! A79   A(21,22,46)           111.3693         calculate D2E/DX2 analytically  !
 ! A80   A(45,22,46)           108.6015         calculate D2E/DX2 analytically  !
 ! A81   A(13,24,15)            82.7428         calculate D2E/DX2 analytically  !
 ! A82   A(13,24,25)           117.6428         calculate D2E/DX2 analytically  !
 ! A83   A(13,24,47)           111.1049         calculate D2E/DX2 analytically  !
 ! A84   A(15,24,25)           120.0062         calculate D2E/DX2 analytically  !
 ! A85   A(15,24,47)           113.2755         calculate D2E/DX2 analytically  !
 ! A86   A(25,24,47)           109.7346         calculate D2E/DX2 analytically  !
 ! A87   A(24,25,26)           122.9789         calculate D2E/DX2 analytically  !
 ! A88   A(24,25,30)           117.7948         calculate D2E/DX2 analytically  !
 ! A89   A(26,25,30)           119.215          calculate D2E/DX2 analytically  !
 ! A90   A(25,26,27)           120.0173         calculate D2E/DX2 analytically  !
 ! A91   A(25,26,48)           119.3508         calculate D2E/DX2 analytically  !
 ! A92   A(27,26,48)           120.6303         calculate D2E/DX2 analytically  !
 ! A93   A(26,27,28)           120.5147         calculate D2E/DX2 analytically  !
 ! A94   A(26,27,49)           119.471          calculate D2E/DX2 analytically  !
 ! A95   A(28,27,49)           120.0137         calculate D2E/DX2 analytically  !
 ! A96   A(27,28,29)           119.6627         calculate D2E/DX2 analytically  !
 ! A97   A(27,28,50)           120.2126         calculate D2E/DX2 analytically  !
 ! A98   A(29,28,50)           120.1244         calculate D2E/DX2 analytically  !
 ! A99   A(28,29,30)           119.9426         calculate D2E/DX2 analytically  !
 ! A100  A(28,29,51)           120.1956         calculate D2E/DX2 analytically  !
 ! A101  A(30,29,51)           119.8617         calculate D2E/DX2 analytically  !
 ! A102  A(25,30,29)           120.6409         calculate D2E/DX2 analytically  !
 ! A103  A(25,30,52)           119.4567         calculate D2E/DX2 analytically  !
 ! A104  A(29,30,52)           119.8956         calculate D2E/DX2 analytically  !
 ! D1    D(17,1,2,3)           174.3954         calculate D2E/DX2 analytically  !
 ! D2    D(17,1,2,13)           -2.3731         calculate D2E/DX2 analytically  !
 ! D3    D(2,1,17,16)           19.0383         calculate D2E/DX2 analytically  !
 ! D4    D(1,2,3,4)             -0.366          calculate D2E/DX2 analytically  !
 ! D5    D(1,2,3,10)           175.8886         calculate D2E/DX2 analytically  !
 ! D6    D(13,2,3,4)           176.9467         calculate D2E/DX2 analytically  !
 ! D7    D(13,2,3,10)           -6.7987         calculate D2E/DX2 analytically  !
 ! D8    D(1,2,13,11)         -175.3537         calculate D2E/DX2 analytically  !
 ! D9    D(1,2,13,14)          -49.1425         calculate D2E/DX2 analytically  !
 ! D10   D(1,2,13,24)           55.5727         calculate D2E/DX2 analytically  !
 ! D11   D(3,2,13,11)            7.2693         calculate D2E/DX2 analytically  !
 ! D12   D(3,2,13,14)          133.4805         calculate D2E/DX2 analytically  !
 ! D13   D(3,2,13,24)         -121.8043         calculate D2E/DX2 analytically  !
 ! D14   D(2,3,4,5)              0.9784         calculate D2E/DX2 analytically  !
 ! D15   D(2,3,4,9)           -178.6935         calculate D2E/DX2 analytically  !
 ! D16   D(10,3,4,5)          -175.066          calculate D2E/DX2 analytically  !
 ! D17   D(10,3,4,9)             5.2621         calculate D2E/DX2 analytically  !
 ! D18   D(2,3,10,11)            3.1975         calculate D2E/DX2 analytically  !
 ! D19   D(4,3,10,11)          179.8809         calculate D2E/DX2 analytically  !
 ! D20   D(3,4,5,6)           -179.5614         calculate D2E/DX2 analytically  !
 ! D21   D(3,4,5,31)             0.532          calculate D2E/DX2 analytically  !
 ! D22   D(9,4,5,6)              0.1076         calculate D2E/DX2 analytically  !
 ! D23   D(9,4,5,31)          -179.799          calculate D2E/DX2 analytically  !
 ! D24   D(3,4,9,8)            179.6713         calculate D2E/DX2 analytically  !
 ! D25   D(3,4,9,35)            -0.3697         calculate D2E/DX2 analytically  !
 ! D26   D(5,4,9,8)             -0.0042         calculate D2E/DX2 analytically  !
 ! D27   D(5,4,9,35)           179.9548         calculate D2E/DX2 analytically  !
 ! D28   D(4,5,6,7)             -0.128          calculate D2E/DX2 analytically  !
 ! D29   D(4,5,6,32)          -179.9899         calculate D2E/DX2 analytically  !
 ! D30   D(31,5,6,7)           179.7784         calculate D2E/DX2 analytically  !
 ! D31   D(31,5,6,32)           -0.0835         calculate D2E/DX2 analytically  !
 ! D32   D(5,6,7,8)              0.0434         calculate D2E/DX2 analytically  !
 ! D33   D(5,6,7,33)          -179.9213         calculate D2E/DX2 analytically  !
 ! D34   D(32,6,7,8)           179.9036         calculate D2E/DX2 analytically  !
 ! D35   D(32,6,7,33)           -0.0611         calculate D2E/DX2 analytically  !
 ! D36   D(6,7,8,9)              0.0627         calculate D2E/DX2 analytically  !
 ! D37   D(6,7,8,34)          -179.9715         calculate D2E/DX2 analytically  !
 ! D38   D(33,7,8,9)          -179.9727         calculate D2E/DX2 analytically  !
 ! D39   D(33,7,8,34)           -0.0069         calculate D2E/DX2 analytically  !
 ! D40   D(7,8,9,4)             -0.0819         calculate D2E/DX2 analytically  !
 ! D41   D(7,8,9,35)           179.9596         calculate D2E/DX2 analytically  !
 ! D42   D(34,8,9,4)           179.9519         calculate D2E/DX2 analytically  !
 ! D43   D(34,8,9,35)           -0.0066         calculate D2E/DX2 analytically  !
 ! D44   D(3,10,11,12)        -175.9893         calculate D2E/DX2 analytically  !
 ! D45   D(3,10,11,13)           2.1419         calculate D2E/DX2 analytically  !
 ! D46   D(10,11,12,36)        129.9353         calculate D2E/DX2 analytically  !
 ! D47   D(10,11,12,37)          9.3502         calculate D2E/DX2 analytically  !
 ! D48   D(10,11,12,38)       -111.612          calculate D2E/DX2 analytically  !
 ! D49   D(13,11,12,36)        -47.9435         calculate D2E/DX2 analytically  !
 ! D50   D(13,11,12,37)       -168.5286         calculate D2E/DX2 analytically  !
 ! D51   D(13,11,12,38)         70.5092         calculate D2E/DX2 analytically  !
 ! D52   D(10,11,13,2)          -5.8955         calculate D2E/DX2 analytically  !
 ! D53   D(10,11,13,14)       -132.1058         calculate D2E/DX2 analytically  !
 ! D54   D(10,11,13,24)        118.6347         calculate D2E/DX2 analytically  !
 ! D55   D(12,11,13,2)         172.1998         calculate D2E/DX2 analytically  !
 ! D56   D(12,11,13,14)         45.9895         calculate D2E/DX2 analytically  !
 ! D57   D(12,11,13,24)        -63.2701         calculate D2E/DX2 analytically  !
 ! D58   D(2,13,14,15)         114.9667         calculate D2E/DX2 analytically  !
 ! D59   D(11,13,14,15)       -126.709          calculate D2E/DX2 analytically  !
 ! D60   D(24,13,14,15)         -1.8676         calculate D2E/DX2 analytically  !
 ! D61   D(2,13,24,15)        -117.7341         calculate D2E/DX2 analytically  !
 ! D62   D(2,13,24,25)         122.1073         calculate D2E/DX2 analytically  !
 ! D63   D(2,13,24,47)          -5.5345         calculate D2E/DX2 analytically  !
 ! D64   D(11,13,24,15)        123.5444         calculate D2E/DX2 analytically  !
 ! D65   D(11,13,24,25)          3.3859         calculate D2E/DX2 analytically  !
 ! D66   D(11,13,24,47)       -124.256          calculate D2E/DX2 analytically  !
 ! D67   D(14,13,24,15)          1.7323         calculate D2E/DX2 analytically  !
 ! D68   D(14,13,24,25)       -118.4262         calculate D2E/DX2 analytically  !
 ! D69   D(14,13,24,47)        113.9319         calculate D2E/DX2 analytically  !
 ! D70   D(13,14,15,16)        -98.8565         calculate D2E/DX2 analytically  !
 ! D71   D(13,14,15,23)        147.1671         calculate D2E/DX2 analytically  !
 ! D72   D(13,14,15,24)          1.8784         calculate D2E/DX2 analytically  !
 ! D73   D(14,15,16,17)         54.258          calculate D2E/DX2 analytically  !
 ! D74   D(14,15,16,18)        176.0668         calculate D2E/DX2 analytically  !
 ! D75   D(14,15,16,22)        -63.9261         calculate D2E/DX2 analytically  !
 ! D76   D(23,15,16,17)       -178.9487         calculate D2E/DX2 analytically  !
 ! D77   D(23,15,16,18)        -57.1398         calculate D2E/DX2 analytically  !
 ! D78   D(23,15,16,22)         62.8672         calculate D2E/DX2 analytically  !
 ! D79   D(24,15,16,17)        -39.1385         calculate D2E/DX2 analytically  !
 ! D80   D(24,15,16,18)         82.6704         calculate D2E/DX2 analytically  !
 ! D81   D(24,15,16,22)       -157.3226         calculate D2E/DX2 analytically  !
 ! D82   D(14,15,24,13)         -1.7107         calculate D2E/DX2 analytically  !
 ! D83   D(14,15,24,25)        116.1            calculate D2E/DX2 analytically  !
 ! D84   D(14,15,24,47)       -111.6098         calculate D2E/DX2 analytically  !
 ! D85   D(16,15,24,13)         95.7079         calculate D2E/DX2 analytically  !
 ! D86   D(16,15,24,25)       -146.4813         calculate D2E/DX2 analytically  !
 ! D87   D(16,15,24,47)        -14.1911         calculate D2E/DX2 analytically  !
 ! D88   D(23,15,24,13)       -141.2807         calculate D2E/DX2 analytically  !
 ! D89   D(23,15,24,25)        -23.47           calculate D2E/DX2 analytically  !
 ! D90   D(23,15,24,47)        108.8202         calculate D2E/DX2 analytically  !
 ! D91   D(15,16,17,1)         -22.3447         calculate D2E/DX2 analytically  !
 ! D92   D(18,16,17,1)        -142.0813         calculate D2E/DX2 analytically  !
 ! D93   D(22,16,17,1)          93.332          calculate D2E/DX2 analytically  !
 ! D94   D(15,16,18,19)        167.4863         calculate D2E/DX2 analytically  !
 ! D95   D(15,16,18,39)         47.3596         calculate D2E/DX2 analytically  !
 ! D96   D(15,16,18,40)        -69.8371         calculate D2E/DX2 analytically  !
 ! D97   D(17,16,18,19)        -72.8046         calculate D2E/DX2 analytically  !
 ! D98   D(17,16,18,39)        167.0687         calculate D2E/DX2 analytically  !
 ! D99   D(17,16,18,40)         49.872          calculate D2E/DX2 analytically  !
 ! D100  D(22,16,18,19)         50.9256         calculate D2E/DX2 analytically  !
 ! D101  D(22,16,18,39)        -69.2011         calculate D2E/DX2 analytically  !
 ! D102  D(22,16,18,40)        173.6021         calculate D2E/DX2 analytically  !
 ! D103  D(15,16,22,21)       -168.9557         calculate D2E/DX2 analytically  !
 ! D104  D(15,16,22,45)        -48.6887         calculate D2E/DX2 analytically  !
 ! D105  D(15,16,22,46)         68.2065         calculate D2E/DX2 analytically  !
 ! D106  D(17,16,22,21)         73.8682         calculate D2E/DX2 analytically  !
 ! D107  D(17,16,22,45)       -165.8648         calculate D2E/DX2 analytically  !
 ! D108  D(17,16,22,46)        -48.9697         calculate D2E/DX2 analytically  !
 ! D109  D(18,16,22,21)        -50.9206         calculate D2E/DX2 analytically  !
 ! D110  D(18,16,22,45)         69.3464         calculate D2E/DX2 analytically  !
 ! D111  D(18,16,22,46)       -173.7585         calculate D2E/DX2 analytically  !
 ! D112  D(16,18,19,20)        -54.8664         calculate D2E/DX2 analytically  !
 ! D113  D(16,18,19,41)       -173.9695         calculate D2E/DX2 analytically  !
 ! D114  D(16,18,19,42)         67.0835         calculate D2E/DX2 analytically  !
 ! D115  D(39,18,19,20)         63.2109         calculate D2E/DX2 analytically  !
 ! D116  D(39,18,19,41)        -55.8922         calculate D2E/DX2 analytically  !
 ! D117  D(39,18,19,42)       -174.8392         calculate D2E/DX2 analytically  !
 ! D118  D(40,18,19,20)       -176.7231         calculate D2E/DX2 analytically  !
 ! D119  D(40,18,19,41)         64.1738         calculate D2E/DX2 analytically  !
 ! D120  D(40,18,19,42)        -54.7732         calculate D2E/DX2 analytically  !
 ! D121  D(18,19,20,21)         59.4349         calculate D2E/DX2 analytically  !
 ! D122  D(41,19,20,21)       -179.8853         calculate D2E/DX2 analytically  !
 ! D123  D(42,19,20,21)        -62.2165         calculate D2E/DX2 analytically  !
 ! D124  D(19,20,21,22)        -59.5261         calculate D2E/DX2 analytically  !
 ! D125  D(19,20,21,43)        179.7802         calculate D2E/DX2 analytically  !
 ! D126  D(19,20,21,44)         62.2005         calculate D2E/DX2 analytically  !
 ! D127  D(20,21,22,16)         54.8779         calculate D2E/DX2 analytically  !
 ! D128  D(20,21,22,45)        -63.3481         calculate D2E/DX2 analytically  !
 ! D129  D(20,21,22,46)        176.0582         calculate D2E/DX2 analytically  !
 ! D130  D(43,21,22,16)        173.9673         calculate D2E/DX2 analytically  !
 ! D131  D(43,21,22,45)         55.7412         calculate D2E/DX2 analytically  !
 ! D132  D(43,21,22,46)        -64.8524         calculate D2E/DX2 analytically  !
 ! D133  D(44,21,22,16)        -67.0681         calculate D2E/DX2 analytically  !
 ! D134  D(44,21,22,45)        174.7058         calculate D2E/DX2 analytically  !
 ! D135  D(44,21,22,46)         54.1122         calculate D2E/DX2 analytically  !
 ! D136  D(13,24,25,26)        108.7584         calculate D2E/DX2 analytically  !
 ! D137  D(13,24,25,30)        -70.0085         calculate D2E/DX2 analytically  !
 ! D138  D(15,24,25,26)         10.8387         calculate D2E/DX2 analytically  !
 ! D139  D(15,24,25,30)       -167.9282         calculate D2E/DX2 analytically  !
 ! D140  D(47,24,25,26)       -122.9461         calculate D2E/DX2 analytically  !
 ! D141  D(47,24,25,30)         58.2871         calculate D2E/DX2 analytically  !
 ! D142  D(24,25,26,27)       -178.2408         calculate D2E/DX2 analytically  !
 ! D143  D(24,25,26,48)          1.3012         calculate D2E/DX2 analytically  !
 ! D144  D(30,25,26,27)          0.5093         calculate D2E/DX2 analytically  !
 ! D145  D(30,25,26,48)       -179.9487         calculate D2E/DX2 analytically  !
 ! D146  D(24,25,30,29)        177.8825         calculate D2E/DX2 analytically  !
 ! D147  D(24,25,30,52)         -1.1665         calculate D2E/DX2 analytically  !
 ! D148  D(26,25,30,29)         -0.9323         calculate D2E/DX2 analytically  !
 ! D149  D(26,25,30,52)       -179.9813         calculate D2E/DX2 analytically  !
 ! D150  D(25,26,27,28)          0.2154         calculate D2E/DX2 analytically  !
 ! D151  D(25,26,27,49)        179.9482         calculate D2E/DX2 analytically  !
 ! D152  D(48,26,27,28)       -179.3207         calculate D2E/DX2 analytically  !
 ! D153  D(48,26,27,49)          0.4121         calculate D2E/DX2 analytically  !
 ! D154  D(26,27,28,29)         -0.5268         calculate D2E/DX2 analytically  !
 ! D155  D(26,27,28,50)        179.6426         calculate D2E/DX2 analytically  !
 ! D156  D(49,27,28,29)        179.7419         calculate D2E/DX2 analytically  !
 ! D157  D(49,27,28,50)         -0.0887         calculate D2E/DX2 analytically  !
 ! D158  D(27,28,29,30)          0.1065         calculate D2E/DX2 analytically  !
 ! D159  D(27,28,29,51)       -179.7869         calculate D2E/DX2 analytically  !
 ! D160  D(50,28,29,30)        179.9372         calculate D2E/DX2 analytically  !
 ! D161  D(50,28,29,51)          0.0438         calculate D2E/DX2 analytically  !
 ! D162  D(28,29,30,25)          0.6266         calculate D2E/DX2 analytically  !
 ! D163  D(28,29,30,52)        179.6715         calculate D2E/DX2 analytically  !
 ! D164  D(51,29,30,25)       -179.4796         calculate D2E/DX2 analytically  !
 ! D165  D(51,29,30,52)         -0.4348         calculate D2E/DX2 analytically  !
 --------------------------------------------------------------------------------
 Trust Radius=3.00D-01 FncErr=1.00D-07 GrdErr=1.00D-06 EigMax=2.50D+02 EigMin=1.00D-04
 Number of steps in this run=    312 maximum allowed number of steps=    312.
 Search for a saddle point of order  1.
 GradGradGradGradGradGradGradGradGradGradGradGradGradGradGradGradGradGrad

 Leave Link  103 at Tue Sep 26 15:16:36 2023, MaxMem=  2147483648 cpu:               0.3 elap:               0.0
 (Enter /gpfs1/apps/software/Gaussian16/AVX2/g16/l202.exe)
 Stoichiometry    C22H23N3O4
 Framework group  C1[X(C22H23N3O4)]
 Deg. of freedom   150
 Full point group                 C1      NOp   1
 Largest Abelian subgroup         C1      NOp   1
 Largest concise Abelian subgroup C1      NOp   1
                         Standard orientation:                         
 ---------------------------------------------------------------------
 Center     Atomic      Atomic             Coordinates (Angstroms)
 Number     Number       Type             X           Y           Z
 ---------------------------------------------------------------------
      1          8           0       -0.612619   -1.835542   -0.290668
      2          6           0       -0.950682   -0.794139    0.232516
      3          7           0       -2.218231   -0.303400    0.409916
      4          6           0       -3.455008   -0.872226    0.027541
      5          6           0       -3.509765   -2.118341   -0.613462
      6          6           0       -4.747034   -2.642770   -0.983648
      7          6           0       -5.928315   -1.949850   -0.724418
      8          6           0       -5.863524   -0.712099   -0.084850
      9          6           0       -4.638350   -0.168712    0.291577
     10          7           0       -2.224334    0.887944    1.136904
     11          6           0       -1.021547    1.241153    1.389643
     12          6           0       -0.673963    2.421089    2.222255
     13          6           0       -0.025520    0.291586    0.779495
     14          8           0        1.010251   -0.151870    1.634853
     15          6           0        2.034112    0.245524    0.715659
     16          7           0        2.343278   -1.498585   -0.056476
     17          1           0        1.448023   -1.867981   -0.395325
     18          6           0        3.320965   -1.362899   -1.135805
     19          6           0        3.842201   -2.721157   -1.584859
     20          8           0        4.363823   -3.445039   -0.497888
     21          6           0        3.391255   -3.658968    0.497346
     22          6           0        2.853624   -2.338892    1.029013
     23          8           0        3.114544    0.644439    1.078421
     24          6           0        0.991468    0.815311   -0.286872
     25          6           0        0.976684    2.287392   -0.602414
     26          6           0        1.995798    3.160159   -0.209620
     27          6           0        1.901233    4.522684   -0.503969
     28          6           0        0.793610    5.024304   -1.184781
     29          6           0       -0.224033    4.154838   -1.584966
     30          6           0       -0.128283    2.795440   -1.300641
     31          1           0       -2.595733   -2.668996   -0.817404
     32          1           0       -4.779979   -3.613286   -1.481891
     33          1           0       -6.891166   -2.370508   -1.017481
     34          1           0       -6.778069   -0.155257    0.126821
     35          1           0       -4.587816    0.797011    0.789840
     36          1           0        0.056876    2.122497    2.988050
     37          1           0       -1.575703    2.817930    2.703919
     38          1           0       -0.211564    3.210180    1.610486
     39          1           0        4.147324   -0.752969   -0.738513
     40          1           0        2.861515   -0.824216   -1.977521
     41          1           0        4.650422   -2.594523   -2.317800
     42          1           0        3.024891   -3.293033   -2.067842
     43          1           0        3.866004   -4.229515    1.306946
     44          1           0        2.557674   -4.265709    0.090966
     45          1           0        3.659184   -1.770130    1.519683
     46          1           0        2.045755   -2.499280    1.755058
     47          1           0        0.922314    0.235410   -1.218071
     48          1           0        2.855722    2.767665    0.332243
     49          1           0        2.701677    5.196244   -0.192335
     50          1           0        0.722078    6.090435   -1.407035
     51          1           0       -1.093753    4.537817   -2.121730
     52          1           0       -0.928224    2.116031   -1.609661
 ---------------------------------------------------------------------
 Rotational constants (GHZ):           0.1955264           0.1342992           0.0911120
 Leave Link  202 at Tue Sep 26 15:16:36 2023, MaxMem=  2147483648 cpu:               0.2 elap:               0.0
 (Enter /gpfs1/apps/software/Gaussian16/AVX2/g16/l301.exe)
 General basis read from cards:  (5D, 7F)
 Centers:       2      4      5      6      7      8      9     11     12     13
 Centers:      15     18     19     21     22     24     25     26     27     28
 Centers:      29     30     17     31     32     33     34     35     36     37
 Centers:      38     39     40     41     42     43     44     45     46     47
 Centers:      48     49     50     51     52      3     10     16      1     14
 Centers:      20     23
 def2SVP
 ****
 Ernie: Thresh=  0.10000D-02 Tol=  0.10000D-05 Strict=F.
 There are   550 symmetry adapted cartesian basis functions of A   symmetry.
 There are   521 symmetry adapted basis functions of A   symmetry.
   521 basis functions,   886 primitive gaussians,   550 cartesian basis functions
   104 alpha electrons      104 beta electrons
       nuclear repulsion energy      2836.5895419520 Hartrees.
 IExCor= 4336 DFT=T Ex+Corr=M062X ExCW=0 ScaHFX=  0.540000
 ScaDFX=  1.000000  1.000000  1.000000  1.000000 ScalE2=  1.000000  1.000000
 IRadAn=      5 IRanWt=     -1 IRanGd=            0 ICorTp=0 IEmpDi=  4
 NAtoms=   52 NActive=   52 NUniq=   52 SFac= 1.00D+00 NAtFMM=   60 NAOKFM=F Big=F
 Integral buffers will be    131072 words long.
 Raffenetti 2 integral format.
 Two-electron integral symmetry is turned on.
 Force inversion solution in PCM.
 ------------------------------------------------------------------------------
 Polarizable Continuum Model (PCM)
 =================================
 Model                : PCM.
 Atomic radii         : SMD-Coulomb.
 Polarization charges : Total charges.
 Charge compensation  : None.
 Solution method      : Matrix inversion.
 Cavity type          : VdW (van der Waals Surface) (Alpha=1.000).
 Cavity algorithm     : GePol (No added spheres)
                        Default sphere list used, NSphG=   52.
                        Lebedev-Laikov grids with approx.  5.0 points / Ang**2.
                        Smoothing algorithm: York/Karplus (Gamma=1.0000).
                        Polarization charges: spherical gaussians, with
                                              point-specific exponents (IZeta= 3).
                        Self-potential: point-specific (ISelfS= 7).
                        Self-field    : sphere-specific E.n sum rule (ISelfD= 2).
 1st derivatives      : Analytical E(r).r(x)/FMM algorithm (CHGder, D1EAlg=3).
                        Cavity 1st derivative terms included.
 2nd derivatives      : Analytical E(r).r(xy)/FMM algorithm (CHGder, D2EAlg=3).
                        Cavity 2nd derivative terms included.
 Solvent              : Dichloromethane, Eps=   8.930000 Eps(inf)=   2.028346
 ------------------------------------------------------------------------------
 GePol: Number of generator spheres                  =      52
 GePol: Total number of spheres                      =      52
 GePol: Number of exposed spheres                    =      52 (100.00%)
 GePol: Number of points                             =    3590
 GePol: Average weight of points                     =       0.11
 GePol: Minimum weight of points                     =   0.11D-11
 GePol: Maximum weight of points                     =    0.20498
 GePol: Number of points with low weight             =     230
 GePol: Fraction of low-weight points (<1% of avg)   =       6.41%
 GePol: Cavity surface area                          =    409.524 Ang**2
 GePol: Cavity volume                                =    423.395 Ang**3
 ------------------------------------------------------------------------------
 Atomic radii for non-electrostatic terms: SMD-CDS.
 ------------------------------------------------------------------------------
 PCM non-electrostatic energy =        -0.0111397450 Hartrees.
 Nuclear repulsion after PCM non-electrostatic terms =     2836.5784022070 Hartrees.
 Leave Link  301 at Tue Sep 26 15:16:39 2023, MaxMem=  2147483648 cpu:               2.3 elap:               0.1
 (Enter /gpfs1/apps/software/Gaussian16/AVX2/g16/l302.exe)
 NPDir=0 NMtPBC=     1 NCelOv=     1 NCel=       1 NClECP=     1 NCelD=      1
         NCelK=      1 NCelE2=     1 NClLst=     1 CellRange=     0.0.
 One-electron integrals computed using PRISM.
 One-electron integral symmetry used in STVInt
 NBasis=   521 RedAO= T EigKep=  2.81D-04  NBF=   521
 NBsUse=   521 1.00D-06 EigRej= -1.00D+00 NBFU=   521
 Precomputing XC quadrature grid using
 IXCGrd= 4 IRadAn=           5 IRanWt=          -1 IRanGd=           0 AccXCQ= 0.00D+00.
 Generated NRdTot=       0 NPtTot=           0 NUsed=           0 NTot=          32
 NSgBfM=   543   543   543   543   543 MxSgAt=    52 MxSgA2=    52.
 Leave Link  302 at Tue Sep 26 15:16:40 2023, MaxMem=  2147483648 cpu:              24.0 elap:               1.6
 (Enter /gpfs1/apps/software/Gaussian16/AVX2/g16/l303.exe)
 DipDrv:  MaxL=1.
 Leave Link  303 at Tue Sep 26 15:16:41 2023, MaxMem=  2147483648 cpu:               1.9 elap:               0.1
 (Enter /gpfs1/apps/software/Gaussian16/AVX2/g16/l401.exe)
 ExpMin= 1.22D-01 ExpMax= 2.27D+03 ExpMxC= 3.41D+02 IAcc=3 IRadAn=         5 AccDes= 0.00D+00
 Harris functional with IExCor= 1009 and IRadAn=       5 diagonalized for initial guess.
 HarFok:  IExCor= 1009 AccDes= 0.00D+00 IRadAn=         5 IDoV= 1 UseB2=F ITyADJ=14
 ICtDFT=  3500011 ScaDFX=  1.000000  1.000000  1.000000  1.000000
 FoFCou: FMM=F IPFlag=           0 FMFlag=      100000 FMFlg1=           0
         NFxFlg=           0 DoJE=T BraDBF=F KetDBF=T FulRan=T
         wScrn=  0.000000 ICntrl=       500 IOpCl=  0 I1Cent=   200000004 NGrid=           0
         NMat0=    1 NMatS0=      1 NMatT0=    0 NMatD0=    1 NMtDS0=    0 NMtDT0=    0
 Petite list used in FoFCou.
 Harris En= -1315.11410660250    
 JPrj=0 DoOrth=F DoCkMO=F.
 Leave Link  401 at Tue Sep 26 15:16:44 2023, MaxMem=  2147483648 cpu:              58.6 elap:               3.7
 (Enter /gpfs1/apps/software/Gaussian16/AVX2/g16/l502.exe)
 Integral symmetry usage will be decided dynamically.
 Closed shell SCF:
 Using DIIS extrapolation, IDIIS=  1040.
 NGot=  2147483648 LenX=  2146862810 LenY=  2146559760
 Requested convergence on RMS density matrix=1.00D-08 within 128 cycles.
 Requested convergence on MAX density matrix=1.00D-06.
 Requested convergence on             energy=1.00D-06.
 No special actions if energy rises.
 Fock matrices will be formed incrementally for  20 cycles.

 Cycle   1  Pass 1  IDiag  1:
 FoFJK:  IHMeth= 1 ICntrl=       0 DoSepK=F KAlg= 0 I1Cent=           0 FoldK=F
 IRaf= 770000000 NMat=       1 IRICut=       1 DoRegI=T DoRafI=F ISym2E= 0 IDoP0=0 IntGTp=1.
 FoFCou: FMM=F IPFlag=           0 FMFlag=      100000 FMFlg1=           0
         NFxFlg=           0 DoJE=F BraDBF=F KetDBF=F FulRan=T
         wScrn=  0.000000 ICntrl=         0 IOpCl=  0 I1Cent=           0 NGrid=           0
         NMat0=    1 NMatS0=      1 NMatT0=    0 NMatD0=    1 NMtDS0=    0 NMtDT0=    0
 Symmetry not used in FoFCou.
 Inv3:  Mode=1 IEnd=    38664300.
 Iteration    1 A*A^-1 deviation from unit magnitude is 3.44D-15 for   1464.
 Iteration    1 A*A^-1 deviation from orthogonality  is 2.04D-15 for   1442    991.
 Iteration    1 A^-1*A deviation from unit magnitude is 3.55D-15 for   1511.
 Iteration    1 A^-1*A deviation from orthogonality  is 2.66D-15 for   3056     50.
 E= -1315.24482185543    
 DIIS: error= 3.22D-02 at cycle   1 NSaved=   1.
 NSaved= 1 IEnMin= 1 EnMin= -1315.24482185543     IErMin= 1 ErrMin= 3.22D-02
 ErrMax= 3.22D-02  0.00D+00 EMaxC= 1.00D-01 BMatC= 6.13D-01 BMatP= 6.13D-01
 IDIUse=3 WtCom= 6.78D-01 WtEn= 3.22D-01
 Coeff-Com:  0.100D+01
 Coeff-En:   0.100D+01
 Coeff:      0.100D+01
 Gap=     0.325 Goal=   None    Shift=    0.000
 GapD=    0.325 DampG=1.000 DampE=0.500 DampFc=0.5000 IDamp=-1.
 Damping current iteration by 5.00D-01
 RMSDP=3.68D-03 MaxDP=3.14D-01              OVMax= 1.57D-01

 Cycle   2  Pass 1  IDiag  1:
 RMSU=  1.82D-03    CP:  9.83D-01
 E= -1315.51023402470     Delta-E=       -0.265412169276 Rises=F Damp=T
 DIIS: error= 6.92D-03 at cycle   2 NSaved=   2.
 NSaved= 2 IEnMin= 2 EnMin= -1315.51023402470     IErMin= 2 ErrMin= 6.92D-03
 ErrMax= 6.92D-03  0.00D+00 EMaxC= 1.00D-01 BMatC= 6.10D-02 BMatP= 6.13D-01
 IDIUse=3 WtCom= 9.31D-01 WtEn= 6.92D-02
 Coeff-Com:  0.495D-02 0.995D+00
 Coeff-En:   0.000D+00 0.100D+01
 Coeff:      0.461D-02 0.995D+00
 Gap=     0.305 Goal=   None    Shift=    0.000
 RMSDP=1.09D-03 MaxDP=1.01D-01 DE=-2.65D-01 OVMax= 1.35D-01

 Cycle   3  Pass 1  IDiag  1:
 RMSU=  1.06D-03    CP:  9.69D-01  9.92D-01
 E= -1315.78129028519     Delta-E=       -0.271056260488 Rises=F Damp=F
 DIIS: error= 9.73D-03 at cycle   3 NSaved=   3.
 NSaved= 3 IEnMin= 3 EnMin= -1315.78129028519     IErMin= 2 ErrMin= 6.92D-03
 ErrMax= 9.73D-03  0.00D+00 EMaxC= 1.00D-01 BMatC= 4.11D-02 BMatP= 6.10D-02
 IDIUse=3 WtCom= 9.03D-01 WtEn= 9.73D-02
 Coeff-Com: -0.859D-01 0.479D+00 0.607D+00
 Coeff-En:   0.000D+00 0.000D+00 0.100D+01
 Coeff:     -0.776D-01 0.433D+00 0.645D+00
 Gap=     0.258 Goal=   None    Shift=    0.000
 RMSDP=5.29D-04 MaxDP=3.74D-02 DE=-2.71D-01 OVMax= 4.92D-02

 Cycle   4  Pass 1  IDiag  1:
 RMSU=  3.38D-04    CP:  9.74D-01  1.10D+00  6.75D-01
 E= -1315.81077091036     Delta-E=       -0.029480625171 Rises=F Damp=F
 DIIS: error= 3.16D-03 at cycle   4 NSaved=   4.
 NSaved= 4 IEnMin= 4 EnMin= -1315.81077091036     IErMin= 4 ErrMin= 3.16D-03
 ErrMax= 3.16D-03  0.00D+00 EMaxC= 1.00D-01 BMatC= 5.35D-03 BMatP= 4.11D-02
 IDIUse=3 WtCom= 9.68D-01 WtEn= 3.16D-02
 Coeff-Com: -0.250D-01 0.774D-01 0.302D+00 0.646D+00
 Coeff-En:   0.000D+00 0.000D+00 0.737D-01 0.926D+00
 Coeff:     -0.242D-01 0.749D-01 0.295D+00 0.654D+00
 Gap=     0.255 Goal=   None    Shift=    0.000
 RMSDP=1.62D-04 MaxDP=1.23D-02 DE=-2.95D-02 OVMax= 1.38D-02

 Cycle   5  Pass 1  IDiag  1:
 RMSU=  8.72D-05    CP:  9.72D-01  1.09D+00  7.51D-01  6.90D-01
 E= -1315.81504890662     Delta-E=       -0.004277996260 Rises=F Damp=F
 DIIS: error= 4.98D-04 at cycle   5 NSaved=   5.
 NSaved= 5 IEnMin= 5 EnMin= -1315.81504890662     IErMin= 5 ErrMin= 4.98D-04
 ErrMax= 4.98D-04  0.00D+00 EMaxC= 1.00D-01 BMatC= 1.83D-04 BMatP= 5.35D-03
 IDIUse=3 WtCom= 9.95D-01 WtEn= 4.98D-03
 Coeff-Com: -0.585D-02 0.797D-02 0.896D-01 0.268D+00 0.640D+00
 Coeff-En:   0.000D+00 0.000D+00 0.000D+00 0.000D+00 0.100D+01
 Coeff:     -0.583D-02 0.793D-02 0.892D-01 0.267D+00 0.642D+00
 Gap=     0.256 Goal=   None    Shift=    0.000
 RMSDP=3.91D-05 MaxDP=2.90D-03 DE=-4.28D-03 OVMax= 3.48D-03

 Cycle   6  Pass 1  IDiag  1:
 RMSU=  2.73D-05    CP:  9.72D-01  1.09D+00  7.60D-01  7.32D-01  7.49D-01
 E= -1315.81519544625     Delta-E=       -0.000146539624 Rises=F Damp=F
 DIIS: error= 1.57D-04 at cycle   6 NSaved=   6.
 NSaved= 6 IEnMin= 6 EnMin= -1315.81519544625     IErMin= 6 ErrMin= 1.57D-04
 ErrMax= 1.57D-04  0.00D+00 EMaxC= 1.00D-01 BMatC= 1.77D-05 BMatP= 1.83D-04
 IDIUse=3 WtCom= 9.98D-01 WtEn= 1.57D-03
 Coeff-Com: -0.757D-03-0.217D-02 0.168D-01 0.667D-01 0.286D+00 0.634D+00
 Coeff-En:   0.000D+00 0.000D+00 0.000D+00 0.000D+00 0.000D+00 0.100D+01
 Coeff:     -0.756D-03-0.217D-02 0.168D-01 0.666D-01 0.285D+00 0.634D+00
 Gap=     0.256 Goal=   None    Shift=    0.000
 RMSDP=1.06D-05 MaxDP=6.36D-04 DE=-1.47D-04 OVMax= 7.30D-04

 Cycle   7  Pass 1  IDiag  1:
 RMSU=  9.10D-06    CP:  9.72D-01  1.09D+00  7.61D-01  7.35D-01  7.97D-01
                    CP:  8.87D-01
 E= -1315.81520961599     Delta-E=       -0.000014169741 Rises=F Damp=F
 DIIS: error= 5.07D-05 at cycle   7 NSaved=   7.
 NSaved= 7 IEnMin= 7 EnMin= -1315.81520961599     IErMin= 7 ErrMin= 5.07D-05
 ErrMax= 5.07D-05  0.00D+00 EMaxC= 1.00D-01 BMatC= 1.49D-06 BMatP= 1.77D-05
 IDIUse=1 WtCom= 1.00D+00 WtEn= 0.00D+00
 Coeff-Com:  0.440D-03-0.173D-02-0.374D-02-0.686D-02 0.341D-01 0.231D+00
 Coeff-Com:  0.747D+00
 Coeff:      0.440D-03-0.173D-02-0.374D-02-0.686D-02 0.341D-01 0.231D+00
 Coeff:      0.747D+00
 Gap=     0.256 Goal=   None    Shift=    0.000
 RMSDP=4.50D-06 MaxDP=3.74D-04 DE=-1.42D-05 OVMax= 5.43D-04

 Cycle   8  Pass 1  IDiag  1:
 RMSU=  3.34D-06    CP:  9.72D-01  1.09D+00  7.62D-01  7.38D-01  8.17D-01
                    CP:  9.59D-01  9.14D-01
 E= -1315.81521114924     Delta-E=       -0.000001533255 Rises=F Damp=F
 DIIS: error= 1.64D-05 at cycle   8 NSaved=   8.
 NSaved= 8 IEnMin= 8 EnMin= -1315.81521114924     IErMin= 8 ErrMin= 1.64D-05
 ErrMax= 1.64D-05  0.00D+00 EMaxC= 1.00D-01 BMatC= 3.14D-07 BMatP= 1.49D-06
 IDIUse=1 WtCom= 1.00D+00 WtEn= 0.00D+00
 Coeff-Com:  0.380D-03-0.628D-03-0.427D-02-0.139D-01-0.272D-01 0.561D-02
 Coeff-Com:  0.340D+00 0.700D+00
 Coeff:      0.380D-03-0.628D-03-0.427D-02-0.139D-01-0.272D-01 0.561D-02
 Coeff:      0.340D+00 0.700D+00
 Gap=     0.256 Goal=   None    Shift=    0.000
 RMSDP=1.81D-06 MaxDP=1.00D-04 DE=-1.53D-06 OVMax= 2.04D-04

 Cycle   9  Pass 1  IDiag  1:
 RMSU=  1.25D-06    CP:  9.72D-01  1.09D+00  7.62D-01  7.38D-01  8.22D-01
                    CP:  9.86D-01  1.00D+00  9.21D-01
 E= -1315.81521147211     Delta-E=       -0.000000322866 Rises=F Damp=F
 DIIS: error= 7.71D-06 at cycle   9 NSaved=   9.
 NSaved= 9 IEnMin= 9 EnMin= -1315.81521147211     IErMin= 9 ErrMin= 7.71D-06
 ErrMax= 7.71D-06  0.00D+00 EMaxC= 1.00D-01 BMatC= 4.28D-08 BMatP= 3.14D-07
 IDIUse=1 WtCom= 1.00D+00 WtEn= 0.00D+00
 Coeff-Com:  0.148D-03-0.146D-03-0.152D-02-0.591D-02-0.163D-01-0.223D-01
 Coeff-Com:  0.837D-01 0.336D+00 0.626D+00
 Coeff:      0.148D-03-0.146D-03-0.152D-02-0.591D-02-0.163D-01-0.223D-01
 Coeff:      0.837D-01 0.336D+00 0.626D+00
 Gap=     0.256 Goal=   None    Shift=    0.000
 RMSDP=7.05D-07 MaxDP=8.09D-05 DE=-3.23D-07 OVMax= 6.92D-05

 Cycle  10  Pass 1  IDiag  1:
 RMSU=  5.12D-07    CP:  9.72D-01  1.09D+00  7.62D-01  7.38D-01  8.23D-01
                    CP:  9.93D-01  1.01D+00  1.01D+00  9.56D-01
 E= -1315.81521151390     Delta-E=       -0.000000041794 Rises=F Damp=F
 DIIS: error= 1.36D-06 at cycle  10 NSaved=  10.
 NSaved=10 IEnMin=10 EnMin= -1315.81521151390     IErMin=10 ErrMin= 1.36D-06
 ErrMax= 1.36D-06  0.00D+00 EMaxC= 1.00D-01 BMatC= 2.87D-09 BMatP= 4.28D-08
 IDIUse=1 WtCom= 1.00D+00 WtEn= 0.00D+00
 Coeff-Com: -0.847D-05 0.343D-04 0.301D-03 0.555D-03 0.131D-03-0.698D-02
 Coeff-Com: -0.320D-01-0.204D-01 0.158D+00 0.900D+00
 Coeff:     -0.847D-05 0.343D-04 0.301D-03 0.555D-03 0.131D-03-0.698D-02
 Coeff:     -0.320D-01-0.204D-01 0.158D+00 0.900D+00
 Gap=     0.256 Goal=   None    Shift=    0.000
 RMSDP=2.87D-07 MaxDP=2.25D-05 DE=-4.18D-08 OVMax= 2.20D-05

 Cycle  11  Pass 1  IDiag  1:
 RMSU=  1.46D-07    CP:  9.72D-01  1.09D+00  7.62D-01  7.38D-01  8.23D-01
                    CP:  9.95D-01  1.02D+00  1.05D+00  1.08D+00  1.05D+00
 E= -1315.81521151819     Delta-E=       -0.000000004282 Rises=F Damp=F
 DIIS: error= 6.56D-07 at cycle  11 NSaved=  11.
 NSaved=11 IEnMin=11 EnMin= -1315.81521151819     IErMin=11 ErrMin= 6.56D-07
 ErrMax= 6.56D-07  0.00D+00 EMaxC= 1.00D-01 BMatC= 5.39D-10 BMatP= 2.87D-09
 IDIUse=1 WtCom= 1.00D+00 WtEn= 0.00D+00
 Coeff-Com: -0.160D-04 0.267D-04 0.288D-03 0.807D-03 0.166D-02-0.804D-03
 Coeff-Com: -0.215D-01-0.387D-01 0.883D-02 0.403D+00 0.647D+00
 Coeff:     -0.160D-04 0.267D-04 0.288D-03 0.807D-03 0.166D-02-0.804D-03
 Coeff:     -0.215D-01-0.387D-01 0.883D-02 0.403D+00 0.647D+00
 Gap=     0.256 Goal=   None    Shift=    0.000
 RMSDP=8.86D-08 MaxDP=1.04D-05 DE=-4.28D-09 OVMax= 6.23D-06

 Cycle  12  Pass 1  IDiag  1:
 RMSU=  5.43D-08    CP:  9.72D-01  1.09D+00  7.62D-01  7.38D-01  8.23D-01
                    CP:  9.96D-01  1.02D+00  1.05D+00  1.10D+00  1.14D+00
                    CP:  9.43D-01
 E= -1315.81521151873     Delta-E=       -0.000000000539 Rises=F Damp=F
 DIIS: error= 2.32D-07 at cycle  12 NSaved=  12.
 NSaved=12 IEnMin=12 EnMin= -1315.81521151873     IErMin=12 ErrMin= 2.32D-07
 ErrMax= 2.32D-07  0.00D+00 EMaxC= 1.00D-01 BMatC= 5.33D-11 BMatP= 5.39D-10
 IDIUse=1 WtCom= 1.00D+00 WtEn= 0.00D+00
 Coeff-Com: -0.387D-05 0.333D-05 0.665D-04 0.215D-03 0.564D-03 0.490D-03
 Coeff-Com: -0.422D-02-0.115D-01-0.201D-01 0.314D-01 0.249D+00 0.754D+00
 Coeff:     -0.387D-05 0.333D-05 0.665D-04 0.215D-03 0.564D-03 0.490D-03
 Coeff:     -0.422D-02-0.115D-01-0.201D-01 0.314D-01 0.249D+00 0.754D+00
 Gap=     0.256 Goal=   None    Shift=    0.000
 RMSDP=2.92D-08 MaxDP=2.50D-06 DE=-5.39D-10 OVMax= 3.54D-06

 Cycle  13  Pass 1  IDiag  1:
 RMSU=  1.58D-08    CP:  9.72D-01  1.09D+00  7.62D-01  7.38D-01  8.23D-01
                    CP:  9.96D-01  1.02D+00  1.06D+00  1.11D+00  1.17D+00
                    CP:  1.03D+00  9.41D-01
 E= -1315.81521151880     Delta-E=       -0.000000000075 Rises=F Damp=F
 DIIS: error= 9.74D-08 at cycle  13 NSaved=  13.
 NSaved=13 IEnMin=13 EnMin= -1315.81521151880     IErMin=13 ErrMin= 9.74D-08
 ErrMax= 9.74D-08  0.00D+00 EMaxC= 1.00D-01 BMatC= 9.00D-12 BMatP= 5.33D-11
 IDIUse=1 WtCom= 1.00D+00 WtEn= 0.00D+00
 Coeff-Com: -0.323D-07-0.135D-05 0.154D-05 0.163D-04 0.102D-03 0.321D-03
 Coeff-Com:  0.339D-03-0.680D-03-0.106D-01-0.300D-01 0.358D-01 0.347D+00
 Coeff-Com:  0.658D+00
 Coeff:     -0.323D-07-0.135D-05 0.154D-05 0.163D-04 0.102D-03 0.321D-03
 Coeff:      0.339D-03-0.680D-03-0.106D-01-0.300D-01 0.358D-01 0.347D+00
 Coeff:      0.658D+00
 Gap=     0.256 Goal=   None    Shift=    0.000
 RMSDP=1.08D-08 MaxDP=8.93D-07 DE=-7.46D-11 OVMax= 7.15D-07

 Cycle  14  Pass 1  IDiag  1:
 RMSU=  5.90D-09    CP:  9.72D-01  1.09D+00  7.62D-01  7.38D-01  8.23D-01
                    CP:  9.96D-01  1.02D+00  1.06D+00  1.11D+00  1.17D+00
                    CP:  1.06D+00  1.02D+00  8.89D-01
 E= -1315.81521151883     Delta-E=       -0.000000000028 Rises=F Damp=F
 DIIS: error= 2.42D-08 at cycle  14 NSaved=  14.
 NSaved=14 IEnMin=14 EnMin= -1315.81521151883     IErMin=14 ErrMin= 2.42D-08
 ErrMax= 2.42D-08  0.00D+00 EMaxC= 1.00D-01 BMatC= 6.28D-13 BMatP= 9.00D-12
 IDIUse=1 WtCom= 1.00D+00 WtEn= 0.00D+00
 Coeff-Com:  0.644D-06-0.107D-05-0.987D-05-0.294D-04-0.512D-04 0.136D-04
 Coeff-Com:  0.736D-03 0.181D-02-0.612D-03-0.146D-01-0.284D-01 0.132D-01
 Coeff-Com:  0.198D+00 0.830D+00
 Coeff:      0.644D-06-0.107D-05-0.987D-05-0.294D-04-0.512D-04 0.136D-04
 Coeff:      0.736D-03 0.181D-02-0.612D-03-0.146D-01-0.284D-01 0.132D-01
 Coeff:      0.198D+00 0.830D+00
 Gap=     0.256 Goal=   None    Shift=    0.000
 RMSDP=4.00D-09 MaxDP=2.70D-07 DE=-2.82D-11 OVMax= 5.77D-07

 Error on total polarization charges =  0.04853
 SCF Done:  E(RM062X) =  -1315.81521152     A.U. after   14 cycles
            NFock= 14  Conv=0.40D-08     -V/T= 2.0099
 KE= 1.302965441169D+03 PE=-8.732489400668D+03 EE= 3.277130345773D+03
 SMD-CDS (non-electrostatic) energy       (kcal/mol) =      -6.99
 (included in total energy above)
 Leave Link  502 at Tue Sep 26 15:21:54 2023, MaxMem=  2147483648 cpu:            4930.8 elap:             309.7
 (Enter /gpfs1/apps/software/Gaussian16/AVX2/g16/l801.exe)
 DoSCS=F DFT=T ScalE2(SS,OS)=  1.000000  1.000000
 Range of M.O.s used for correlation:     1   521
 NBasis=   521 NAE=   104 NBE=   104 NFC=     0 NFV=     0
 NROrb=    521 NOA=   104 NOB=   104 NVA=   417 NVB=   417

 **** Warning!!: The largest alpha MO coefficient is  0.10813858D+02

 Leave Link  801 at Tue Sep 26 15:21:54 2023, MaxMem=  2147483648 cpu:               0.7 elap:               0.0
 (Enter /gpfs1/apps/software/Gaussian16/AVX2/g16/l1101.exe)
 Using compressed storage, NAtomX=    52.
 Will process     53 centers per pass.
 Leave Link 1101 at Tue Sep 26 15:21:56 2023, MaxMem=  2147483648 cpu:              31.1 elap:               2.0
 (Enter /gpfs1/apps/software/Gaussian16/AVX2/g16/l1102.exe)
 Symmetrizing basis deriv contribution to polar:
 IMax=3 JMax=2 DiffMx= 0.00D+00
 Leave Link 1102 at Tue Sep 26 15:21:56 2023, MaxMem=  2147483648 cpu:               1.8 elap:               0.1
 (Enter /gpfs1/apps/software/Gaussian16/AVX2/g16/l1110.exe)
 Forming Gx(P) for the SCF density, NAtomX=    52.
 Integral derivatives from FoFJK, PRISM(SPDF).
 Do as many integral derivatives as possible in FoFJK.
 G2DrvN: MDV=    2147478156.
 G2DrvN: will do    53 centers at a time, making    1 passes.
 Calling FoFCou, ICntrl=  3107 FMM=F I1Cent=   0 AccDes= 0.00D+00.
 FoFJK:  IHMeth= 1 ICntrl=    3107 DoSepK=F KAlg= 0 I1Cent=           0 FoldK=F
 IRaf=         0 NMat=       1 IRICut=       1 DoRegI=T DoRafI=F ISym2E= 0 IDoP0=0 IntGTp=1.
 FoFCou: FMM=F IPFlag=           0 FMFlag=      100000 FMFlg1=           0
         NFxFlg=           0 DoJE=F BraDBF=F KetDBF=F FulRan=T
         wScrn=  0.000000 ICntrl=      3107 IOpCl=  0 I1Cent=           0 NGrid=           0
         NMat0=    1 NMatS0=      1 NMatT0=    0 NMatD0=    1 NMtDS0=    0 NMtDT0=    0
 Symmetry not used in FoFCou.
 NEqPCM:  Using equilibrium solvation (IEInf=0, Eps=   8.9300, EpsInf=   2.0283)
 G2PCM: DoFxE=T DoFxN=T DoGrad=T DoDP/DQ/DG/TGxP=FFFF NFrqRd=   0 IEInf=0 SqF1=F DoCFld=F IF1Alg=4.
 GePol: Maximum number of non-zero 1st derivatives   =     230
 End of G2Drv F.D. properties file   721 does not exist.
 End of G2Drv F.D. properties file   722 does not exist.
 End of G2Drv F.D. properties file   788 does not exist.
 Leave Link 1110 at Tue Sep 26 15:35:17 2023, MaxMem=  2147483648 cpu:           12786.7 elap:             799.7
 (Enter /gpfs1/apps/software/Gaussian16/AVX2/g16/l1002.exe)
 Minotr:  Closed shell wavefunction.
          IDoAtm=11111111111111111111111111111111111111111111111111
          IDoAtm=11
 NEqPCM:  Using equilibrium solvation (IEInf=0, Eps=   8.9300, EpsInf=   2.0283)
          Direct CPHF calculation.
          Differentiating once with respect to nuclear coordinates.
          Requested convergence is 1.0D-08 RMS, and 1.0D-07 maximum.
          Secondary convergence is 1.0D-12 RMS, and 1.0D-12 maximum.
          NewPWx=T KeepS1=F KeepF1=F KeepIn=T MapXYZ=F SortEE=F KeepMc=T.
        15812 words used for storage of precomputed grid.
 Two-electron integrals replicated using symmetry.
          MDV=    2147483648 using IRadAn=       1.
          Solving linear equations simultaneously, MaxMat=     384.
 FoF2E skips out because all densities are zero.
 CalDSu exits because no D1Ps are significant.
 FoFJK:  IHMeth= 1 ICntrl=       0 DoSepK=F KAlg= 0 I1Cent=           0 FoldK=F
 IRaf= 740000000 NMat=     156 IRICut=     390 DoRegI=T DoRafI=T ISym2E= 2 IDoP0=3 IntGTp=3.
          There are   159 degrees of freedom in the 1st order CPHF.  IDoFFX=6 NUNeed=     0.
    153 vectors produced by pass  0 Test12= 4.34D-14 1.00D-09 XBig12= 1.35D-01 8.61D-02.
 AX will form   153 AO Fock derivatives at one time.
    153 vectors produced by pass  1 Test12= 4.34D-14 1.00D-09 XBig12= 1.80D-02 2.82D-02.
    153 vectors produced by pass  2 Test12= 4.34D-14 1.00D-09 XBig12= 3.02D-04 2.27D-03.
    153 vectors produced by pass  3 Test12= 4.34D-14 1.00D-09 XBig12= 3.71D-06 1.76D-04.
    153 vectors produced by pass  4 Test12= 4.34D-14 1.00D-09 XBig12= 3.00D-08 1.19D-05.
    153 vectors produced by pass  5 Test12= 4.34D-14 1.00D-09 XBig12= 1.30D-10 1.04D-06.
     93 vectors produced by pass  6 Test12= 4.34D-14 1.00D-09 XBig12= 4.12D-13 4.51D-08.
     13 vectors produced by pass  7 Test12= 4.34D-14 1.00D-09 XBig12= 1.18D-15 2.35D-09.
 InvSVY:  IOpt=1 It=  1 EMax= 5.00D-16
 Solved reduced A of dimension  1024 with   159 vectors.
 End of Minotr F.D. properties file   721 does not exist.
 End of Minotr F.D. properties file   722 does not exist.
 End of Minotr F.D. properties file   788 does not exist.
 Leave Link 1002 at Tue Sep 26 16:10:21 2023, MaxMem=  2147483648 cpu:           33632.7 elap:            2103.7
 (Enter /gpfs1/apps/software/Gaussian16/AVX2/g16/l601.exe)
 Copying SCF densities to generalized density rwf, IOpCl= 0 IROHF=0.

 **********************************************************************

            Population analysis using the SCF Density.

 **********************************************************************

 Orbital symmetries:
       Occupied  (A) (A) (A) (A) (A) (A) (A) (A) (A) (A) (A) (A)
                 (A) (A) (A) (A) (A) (A) (A) (A) (A) (A) (A) (A)
                 (A) (A) (A) (A) (A) (A) (A) (A) (A) (A) (A) (A)
                 (A) (A) (A) (A) (A) (A) (A) (A) (A) (A) (A) (A)
                 (A) (A) (A) (A) (A) (A) (A) (A) (A) (A) (A) (A)
                 (A) (A) (A) (A) (A) (A) (A) (A) (A) (A) (A) (A)
                 (A) (A) (A) (A) (A) (A) (A) (A) (A) (A) (A) (A)
                 (A) (A) (A) (A) (A) (A) (A) (A) (A) (A) (A) (A)
                 (A) (A) (A) (A) (A) (A) (A) (A)
       Virtual   (A) (A) (A) (A) (A) (A) (A) (A) (A) (A) (A) (A)
                 (A) (A) (A) (A) (A) (A) (A) (A) (A) (A) (A) (A)
                 (A) (A) (A) (A) (A) (A) (A) (A) (A) (A) (A) (A)
                 (A) (A) (A) (A) (A) (A) (A) (A) (A) (A) (A) (A)
                 (A) (A) (A) (A) (A) (A) (A) (A) (A) (A) (A) (A)
                 (A) (A) (A) (A) (A) (A) (A) (A) (A) (A) (A) (A)
                 (A) (A) (A) (A) (A) (A) (A) (A) (A) (A) (A) (A)
                 (A) (A) (A) (A) (A) (A) (A) (A) (A) (A) (A) (A)
                 (A) (A) (A) (A) (A) (A) (A) (A) (A) (A) (A) (A)
                 (A) (A) (A) (A) (A) (A) (A) (A) (A) (A) (A) (A)
                 (A) (A) (A) (A) (A) (A) (A) (A) (A) (A) (A) (A)
                 (A) (A) (A) (A) (A) (A) (A) (A) (A) (A) (A) (A)
                 (A) (A) (A) (A) (A) (A) (A) (A) (A) (A) (A) (A)
                 (A) (A) (A) (A) (A) (A) (A) (A) (A) (A) (A) (A)
                 (A) (A) (A) (A) (A) (A) (A) (A) (A) (A) (A) (A)
                 (A) (A) (A) (A) (A) (A) (A) (A) (A) (A) (A) (A)
                 (A) (A) (A) (A) (A) (A) (A) (A) (A) (A) (A) (A)
                 (A) (A) (A) (A) (A) (A) (A) (A) (A) (A) (A) (A)
                 (A) (A) (A) (A) (A) (A) (A) (A) (A) (A) (A) (A)
                 (A) (A) (A) (A) (A) (A) (A) (A) (A) (A) (A) (A)
                 (A) (A) (A) (A) (A) (A) (A) (A) (A) (A) (A) (A)
                 (A) (A) (A) (A) (A) (A) (A) (A) (A) (A) (A) (A)
                 (A) (A) (A) (A) (A) (A) (A) (A) (A) (A) (A) (A)
                 (A) (A) (A) (A) (A) (A) (A) (A) (A) (A) (A) (A)
                 (A) (A) (A) (A) (A) (A) (A) (A) (A) (A) (A) (A)
                 (A) (A) (A) (A) (A) (A) (A) (A) (A) (A) (A) (A)
                 (A) (A) (A) (A) (A) (A) (A) (A) (A) (A) (A) (A)
                 (A) (A) (A) (A) (A) (A) (A) (A) (A) (A) (A) (A)
                 (A) (A) (A) (A) (A) (A) (A) (A) (A) (A) (A) (A)
                 (A) (A) (A) (A) (A) (A) (A) (A) (A) (A) (A) (A)
                 (A) (A) (A) (A) (A) (A) (A) (A) (A) (A) (A) (A)
                 (A) (A) (A) (A) (A) (A) (A) (A) (A) (A) (A) (A)
                 (A) (A) (A) (A) (A) (A) (A) (A) (A) (A) (A) (A)
                 (A) (A) (A) (A) (A) (A) (A) (A) (A) (A) (A) (A)
                 (A) (A) (A) (A) (A) (A) (A) (A) (A)
 The electronic state is 1-A.
 Alpha  occ. eigenvalues --  -19.65655 -19.64065 -19.63106 -19.59360 -14.84465
 Alpha  occ. eigenvalues --  -14.80930 -14.78979 -10.69210 -10.68207 -10.63531
 Alpha  occ. eigenvalues --  -10.61251 -10.61178 -10.59532 -10.59427 -10.58306
 Alpha  occ. eigenvalues --  -10.57908 -10.57589 -10.57157 -10.55983 -10.55970
 Alpha  occ. eigenvalues --  -10.55936 -10.55879 -10.55859 -10.55849 -10.55729
 Alpha  occ. eigenvalues --  -10.55663 -10.55521 -10.55480 -10.55477  -1.21521
 Alpha  occ. eigenvalues --   -1.18938  -1.15357  -1.14352  -1.11770  -1.02924
 Alpha  occ. eigenvalues --   -0.98881  -0.95828  -0.93739  -0.88967  -0.86392
 Alpha  occ. eigenvalues --   -0.85695  -0.84225  -0.83311  -0.83189  -0.80771
 Alpha  occ. eigenvalues --   -0.78802  -0.76710  -0.73917  -0.72211  -0.69804
 Alpha  occ. eigenvalues --   -0.68557  -0.68028  -0.67060  -0.66222  -0.64615
 Alpha  occ. eigenvalues --   -0.62227  -0.61459  -0.60179  -0.59474  -0.57564
 Alpha  occ. eigenvalues --   -0.56936  -0.56517  -0.55714  -0.54991  -0.54739
 Alpha  occ. eigenvalues --   -0.53899  -0.53417  -0.52719  -0.52177  -0.51734
 Alpha  occ. eigenvalues --   -0.51408  -0.50885  -0.50296  -0.49893  -0.49017
 Alpha  occ. eigenvalues --   -0.48634  -0.48058  -0.47173  -0.46573  -0.45890
 Alpha  occ. eigenvalues --   -0.45761  -0.45303  -0.44350  -0.44286  -0.43471
 Alpha  occ. eigenvalues --   -0.42898  -0.42429  -0.41667  -0.41463  -0.40930
 Alpha  occ. eigenvalues --   -0.40603  -0.40115  -0.39207  -0.38600  -0.38118
 Alpha  occ. eigenvalues --   -0.35141  -0.34459  -0.32779  -0.32706  -0.31336
 Alpha  occ. eigenvalues --   -0.31089  -0.30282  -0.29219  -0.27522
 Alpha virt. eigenvalues --   -0.01898   0.01333   0.01969   0.02409   0.02648
 Alpha virt. eigenvalues --    0.08414   0.09535   0.10146   0.11261   0.11545
 Alpha virt. eigenvalues --    0.12717   0.13254   0.13618   0.13916   0.15126
 Alpha virt. eigenvalues --    0.15344   0.15908   0.16290   0.16696   0.16899
 Alpha virt. eigenvalues --    0.17439   0.17627   0.18023   0.18413   0.18512
 Alpha virt. eigenvalues --    0.19265   0.19854   0.20058   0.20318   0.20568
 Alpha virt. eigenvalues --    0.21166   0.21263   0.21601   0.22637   0.22804
 Alpha virt. eigenvalues --    0.24084   0.25511   0.25590   0.26416   0.27028
 Alpha virt. eigenvalues --    0.27799   0.29071   0.29276   0.29586   0.30491
 Alpha virt. eigenvalues --    0.31357   0.31648   0.31994   0.32800   0.33366
 Alpha virt. eigenvalues --    0.33797   0.34238   0.34904   0.35170   0.36334
 Alpha virt. eigenvalues --    0.37263   0.38101   0.39160   0.40544   0.42397
 Alpha virt. eigenvalues --    0.42695   0.43978   0.44376   0.45147   0.45401
 Alpha virt. eigenvalues --    0.46026   0.46746   0.47460   0.48144   0.48740
 Alpha virt. eigenvalues --    0.49215   0.49766   0.50262   0.50431   0.50866
 Alpha virt. eigenvalues --    0.51246   0.51881   0.52189   0.52684   0.53700
 Alpha virt. eigenvalues --    0.53950   0.54289   0.54876   0.55544   0.55870
 Alpha virt. eigenvalues --    0.56005   0.56851   0.57623   0.58175   0.58511
 Alpha virt. eigenvalues --    0.59661   0.60150   0.60880   0.61409   0.61744
 Alpha virt. eigenvalues --    0.62715   0.63275   0.64229   0.64779   0.65340
 Alpha virt. eigenvalues --    0.65748   0.66145   0.66425   0.67013   0.68160
 Alpha virt. eigenvalues --    0.68344   0.68752   0.69424   0.69887   0.70515
 Alpha virt. eigenvalues --    0.70737   0.71324   0.71488   0.71671   0.71767
 Alpha virt. eigenvalues --    0.72249   0.72315   0.72370   0.72848   0.73208
 Alpha virt. eigenvalues --    0.73650   0.73985   0.74288   0.74545   0.74798
 Alpha virt. eigenvalues --    0.75234   0.75454   0.75783   0.76072   0.76389
 Alpha virt. eigenvalues --    0.76943   0.77179   0.77873   0.77983   0.78330
 Alpha virt. eigenvalues --    0.78671   0.79440   0.79566   0.79745   0.80470
 Alpha virt. eigenvalues --    0.80928   0.81828   0.82603   0.83275   0.84695
 Alpha virt. eigenvalues --    0.85294   0.85517   0.86816   0.87361   0.88021
 Alpha virt. eigenvalues --    0.88297   0.90184   0.92294   0.93724   0.94316
 Alpha virt. eigenvalues --    0.95649   0.96666   0.97475   0.98901   1.00269
 Alpha virt. eigenvalues --    1.01975   1.02110   1.03703   1.05333   1.05886
 Alpha virt. eigenvalues --    1.06166   1.07489   1.09209   1.09616   1.10339
 Alpha virt. eigenvalues --    1.11606   1.12430   1.15161   1.16152   1.16574
 Alpha virt. eigenvalues --    1.18436   1.19630   1.20718   1.22476   1.23911
 Alpha virt. eigenvalues --    1.23989   1.25552   1.26644   1.27640   1.27821
 Alpha virt. eigenvalues --    1.28400   1.29608   1.29798   1.29851   1.30670
 Alpha virt. eigenvalues --    1.30862   1.31384   1.31710   1.31930   1.32971
 Alpha virt. eigenvalues --    1.33182   1.34347   1.34779   1.35541   1.36531
 Alpha virt. eigenvalues --    1.36573   1.37194   1.37487   1.39145   1.39826
 Alpha virt. eigenvalues --    1.42040   1.42997   1.45136   1.45979   1.47196
 Alpha virt. eigenvalues --    1.47987   1.50173   1.50956   1.52622   1.53457
 Alpha virt. eigenvalues --    1.54079   1.55907   1.56014   1.58032   1.58769
 Alpha virt. eigenvalues --    1.60137   1.61502   1.63334   1.65305   1.66233
 Alpha virt. eigenvalues --    1.66433   1.67642   1.69527   1.71068   1.72048
 Alpha virt. eigenvalues --    1.72523   1.73376   1.73437   1.73655   1.74910
 Alpha virt. eigenvalues --    1.75189   1.76728   1.77303   1.77629   1.78160
 Alpha virt. eigenvalues --    1.78911   1.79238   1.79548   1.79895   1.80648
 Alpha virt. eigenvalues --    1.80761   1.81127   1.81180   1.81703   1.82134
 Alpha virt. eigenvalues --    1.82674   1.82850   1.82919   1.83446   1.84112
 Alpha virt. eigenvalues --    1.84314   1.84550   1.84768   1.85613   1.86319
 Alpha virt. eigenvalues --    1.87025   1.87615   1.88821   1.89104   1.89850
 Alpha virt. eigenvalues --    1.91153   1.91348   1.92016   1.92573   1.92948
 Alpha virt. eigenvalues --    1.93205   1.93955   1.94302   1.95072   1.95968
 Alpha virt. eigenvalues --    1.96266   1.96869   1.98001   1.98451   1.98808
 Alpha virt. eigenvalues --    1.99340   1.99879   2.00984   2.01593   2.01777
 Alpha virt. eigenvalues --    2.02124   2.02945   2.03542   2.04870   2.05872
 Alpha virt. eigenvalues --    2.06573   2.06830   2.07247   2.08616   2.10365
 Alpha virt. eigenvalues --    2.12116   2.13185   2.14118   2.14214   2.15390
 Alpha virt. eigenvalues --    2.16631   2.16931   2.17855   2.18111   2.18351
 Alpha virt. eigenvalues --    2.19271   2.19467   2.20309   2.21485   2.22211
 Alpha virt. eigenvalues --    2.22980   2.24930   2.26940   2.27628   2.28016
 Alpha virt. eigenvalues --    2.30053   2.30803   2.31854   2.32810   2.33364
 Alpha virt. eigenvalues --    2.33459   2.33698   2.34102   2.34867   2.35974
 Alpha virt. eigenvalues --    2.36571   2.37269   2.37453   2.38860   2.39654
 Alpha virt. eigenvalues --    2.40284   2.42129   2.43219   2.45525   2.46250
[...]
 14,0.00000090,0.00000005,-0.00000025,-0.00000046,-0.00000002,-0.000000
 30,0.00000062,-0.00000076,-0.00000016,-0.00000037,0.00000113,0.0000010
 6,0.00002144,0.00001872,-0.00002501,0.00002631,-0.00000986,0.00002203,
 -0.00000568,0.00001588,-0.00002670,-0.00000528,0.00000927,0.00011876,0
 .00000342,-0.00000894,-0.00002563,0.00003662,-0.00001863,0.00004096,0.
 00000164,-0.00000527,-0.00001065,0.00000041,-0.00000279,-0.00000055,-0
 .00000401,-0.00000012,0.00000566,0.00000184,-0.00000422,0.00000273,0.0
 0000140,0.00000448,-0.00000822,-0.00000419,0.00000009,0.00000406,0.000
 00195,-0.00000059,0.00000297,-0.00005775,0.00001065,0.00000825,0.00018
 281,0.00021368,0.00004147,-0.00250572,0.00247988,0.00551492,0.00478865
 ,0.00526836,0.00613963,-0.06484931,-0.04567203,-0.06538042,-0.01029298
 ,-0.00969690,0.00123055,-0.00477877,0.00248584,0.00454958,0.00029827,0
 .00029270,-0.00082627,-0.00000066,-0.00000046,0.00000026,-0.00000013,-
 0.00000038,0.00000004,-0.00000018,-0.00000014,0.00000008,0.00000038,0.
 00000029,0.00000021,0.00000025,0.00000060,-0.00000011,0.00000770,0.000
 00609,-0.00000834,-0.00000151,-0.00000377,-0.00000138,0.00000698,-0.00
 000743,0.00002774,0.00000076,0.00000073,0.00000263,-0.00000308,-0.0000
 0048,-0.00000301,0.00000122,-0.00000084,-0.00000074,-0.00000029,0.0000
 0069,-0.00000014,-0.00000008,0.00000076,-0.00000044,0.00000051,-0.0000
 0031,-0.00000041,-0.00000106,-0.00000040,0.00000129,0.00000103,0.00000
 092,-0.00000024,-0.00006150,0.00006044,-0.00002116,0.00193777,-0.00105
 266,-0.00322352,0.07287125,0.04707217,0.05588365,0.00000262,0.00000121
 ,0.00000404,-0.00000288,0.00000101,-0.00000347,-0.00001174,0.00000609,
 0.00001083,0.00000888,0.00000565,-0.00000116,-0.00000148,-0.00000012,0
 .00000030,0.00000072,0.00000039,0.00000091,-0.00000130,0.00000027,-0.0
 0000010,0.00000050,0.00000007,0.00000009,-0.00000115,-0.00000102,-0.00
 000103,0.00000830,-0.00000867,0.00000486,-0.00000780,-0.00000051,-0.00
 002452,0.00000993,-0.00000425,0.00000665,-0.00002348,-0.00001391,-0.00
 004272,0.00006767,0.00001024,0.00001819,-0.00024810,-0.00019766,-0.000
 05629,-0.00000226,0.00005627,0.00002387,-0.00000508,0.00000070,-0.0000
 0055,0.00000756,0.00000623,-0.00001169,-0.00000100,-0.00000308,0.00000
 063,-0.00000172,0.00000025,0.00000340,0.00000156,-0.00000137,-0.000005
 92,0.00000094,-0.00000115,0.00001105,0.00012350,0.00022321,0.00000445,
 -0.00004783,0.00004897,0.00047388,-0.00110391,-0.00011596,-0.00014107,
 -0.00217938,0.00059140,-0.00514188,0.00342565,0.02444870,-0.00497767,-
 0.05560254,0.01647931,-0.01091544,0.00596660,-0.02257928,0.00499217,-0
 .00149573,-0.00297458,-0.00398592,0.00000010,0.00000077,-0.00000069,0.
 00000006,0.00000020,-0.00000006,0.00000004,-0.00000012,-0.00000002,-0.
 00000089,-0.00000052,0.00000009,0.00000058,-0.00000128,-0.00000021,-0.
 00000491,-0.00000005,0.00000639,0.00000072,0.,0.00000352,-0.00000267,-
 0.00000500,-0.00000467,0.00000146,-0.00000226,-0.00000159,0.00000098,-
 0.00000146,0.00000111,-0.00000179,0.00000182,0.00000085,0.00000036,0.0
 0000087,0.00000039,-0.00000129,0.00000168,0.00000055,-0.00000009,0.000
 00072,0.00000042,0.00000173,-0.00000237,0.00000007,0.00000019,-0.00000
 034,-0.00000031,0.00003771,0.00009454,0.00002197,0.00015494,0.00104151
 ,-0.00014052,0.00011908,-0.00022089,0.00239235,0.05063170,-0.00000813,
 -0.00003534,-0.00001020,0.00002490,0.00004847,0.00001762,-0.00002538,-
 0.00001763,-0.00001544,0.00003914,0.00002066,0.00000881,-0.00000745,-0
 .00000653,-0.00000310,0.00000179,0.00000134,0.00000145,-0.00000484,-0.
 00000142,-0.00000124,0.00000218,-0.00000064,0.00000067,-0.00000944,-0.
 00000167,-0.00000017,-0.00001459,0.00002107,0.00002701,0.00001563,-0.0
 0001573,-0.00003467,-0.00000509,0.00000561,0.00000282,-0.00000584,0.00
 001242,-0.00000223,-0.00004372,-0.00003217,0.00005186,0.00003366,0.000
 17755,-0.00005846,0.00002224,-0.00008482,-0.00001512,0.00000201,0.0000
 1031,0.00000313,-0.00001440,-0.00001231,0.00001450,-0.00000049,0.00001
 227,-0.00000208,0.00000476,-0.00000713,-0.00000093,-0.00000049,0.00000
 502,0.00001168,-0.00000356,-0.00000056,-0.00002878,-0.00000806,-0.0001
 4274,0.00003918,0.00016703,0.00000235,-0.00008825,-0.00009892,0.000648
 73,-0.00031015,0.00131035,0.00132858,0.00180266,-0.00254939,-0.0049608
 8,0.00043787,0.01651004,-0.33523575,0.06229608,0.00429691,-0.01190463,
 0.00523353,-0.00357530,-0.00011420,-0.00052677,0.00000246,0.00000386,0
 .00000069,-0.00000049,-0.00000086,-0.00000064,-0.00000086,-0.00000039,
 -0.00000038,-0.00000156,0.00000018,-0.00000015,0.00000387,-0.00000089,
 -0.00000174,0.00000042,-0.00000027,0.,-0.00000718,-0.00000424,0.000007
 10,0.00001014,-0.00002042,-0.00001845,-0.00000118,0.00000313,0.0000005
 3,0.00000046,0.00000219,0.00000121,0.00000369,-0.00000343,-0.00000163,
 -0.00000104,-0.00000184,-0.00000066,0.00000347,-0.00000465,-0.00000052
 ,-0.00000098,-0.00000133,-0.00000127,-0.00000102,0.00000355,0.00000152
 ,-0.00000105,0.00000183,0.00000095,-0.00002838,-0.00002301,-0.00000831
 ,-0.00019091,-0.00030982,-0.00003960,0.00028300,0.00044753,-0.00074415
 ,-0.01692209,0.35016514,0.00000722,0.00001142,0.00001024,-0.00004084,-
 0.00001093,-0.00004798,0.00003540,-0.00001004,-0.00001175,-0.00000346,
 -0.00000645,-0.00000033,0.00000097,0.00000073,-0.00000002,0.00000016,-
 0.00000063,-0.00000108,0.00000106,0.00000008,-0.00000031,0.00000033,0.
 00000009,-0.00000057,0.00000211,0.00000215,0.00000146,0.00002522,0.000
 00920,0.00000665,-0.00002238,0.00000984,0.00001508,0.00002004,-0.00001
 174,-0.00000970,0.00006491,0.00013763,0.00006150,-0.00001291,-0.000009
 14,-0.00004466,-0.00006224,-0.00011735,-0.00003453,0.00001300,0.000008
 32,0.00001358,-0.00000387,0.00000286,-0.00000018,0.00000006,0.00000166
 ,0.00000106,0.00000250,-0.00000629,0.00000209,-0.00000077,0.00000601,-
 0.00000556,-0.00000124,-0.00000280,0.00000188,0.00000362,-0.00000539,0
 .00000645,0.00003943,0.00012853,-0.00004257,0.00043323,-0.00007688,-0.
 00068856,-0.00003321,-0.00037513,-0.00082119,-0.00522267,0.00163607,0.
 00459554,0.00000741,0.01428002,0.00184524,-0.01089841,0.06236906,-0.05
 733285,0.00001926,-0.00886908,0.00593746,-0.00400821,-0.00012569,0.005
 20518,-0.00000091,-0.00000116,0.00000036,-0.00000007,-0.00000025,0.000
 00032,-0.00000003,-0.00000021,0.00000033,0.00000075,0.00000017,0.00000
 050,0.00000010,0.00000086,0.00000042,-0.00000020,0.00000002,0.00000005
 ,0.00000606,0.00000766,-0.00000821,-0.00002045,0.00002414,0.00001044,0
 .00000309,-0.00000219,0.00000107,-0.00000341,-0.00000175,-0.00000224,-
 0.00000013,0.00000029,0.00000010,-0.00000015,0.00000130,0.00000028,-0.
 00000078,0.00000121,-0.00000060,0.00000057,0.00000065,0.00000044,0.000
 00126,-0.00000246,0.00000033,0.00000069,-0.00000039,-0.00000103,-0.000
 05816,-0.00008913,-0.00002906,0.00007804,0.00056464,-0.00003624,0.0022
 8231,-0.00100691,-0.00307410,0.01522052,-0.06768280,0.04742504,0.00000
 685,0.00003462,0.00001964,-0.00003005,-0.00004686,-0.00003992,0.000025
 64,0.00002941,0.00001839,-0.00002853,-0.00001808,-0.00000668,0.0000049
 6,0.00000493,0.00000347,-0.00000068,-0.00000092,-0.00000061,0.00000322
 ,0.00000160,0.00000125,-0.00000209,0.00000100,-0.00000096,0.00000745,0
 .00000131,-0.00000060,0.00001616,-0.00002156,-0.00000629,-0.00004046,-
 0.00000361,0.00002727,-0.00000055,-0.00000264,0.00000533,-0.00000382,0
 .00001773,0.00002539,-0.00001272,0.00001975,-0.00003329,0.00005586,-0.
 00008166,0.00012010,-0.00001899,0.00004504,-0.00000379,0.00000051,-0.0
 0001102,-0.00000408,0.00001159,0.00000871,-0.00001457,-0.00000116,-0.0
 0000854,-0.00000027,-0.00000302,0.00000388,0.00000449,0.00000136,-0.00
 000457,-0.00001165,0.00000048,0.00000432,0.00002198,-0.00003315,0.0000
 4913,-0.00004722,0.00000913,-0.00009554,-0.00003204,0.00292428,-0.0007
 5293,-0.00235834,0.00012075,-0.00048680,0.00060612,-0.00037371,-0.0040
 8342,-0.00321739,-0.01136431,0.01032253,-0.01019357,-0.24203112,0.0813
 3042,-0.11971105,0.00301450,-0.00233010,-0.00038559,-0.00000190,-0.000
 00253,-0.00000129,0.00000056,0.00000117,0.00000042,0.00000087,0.000000
 32,0.00000032,0.00000063,-0.00000081,0.00000027,-0.00000263,-0.0000009
 0,0.00000238,-0.00000020,0.00000224,-0.00000127,0.00000325,0.00000244,
 -0.00000700,-0.00000132,0.00001488,0.00000974,0.00000035,-0.00000198,0
 .00000037,0.00000042,-0.00000268,-0.00000099,-0.00000294,0.00000259,0.
 00000115,0.00000133,0.00000201,0.00000065,-0.00000249,0.00000342,0.000
 00089,0.00000077,0.00000134,0.00000118,0.00000082,-0.00000206,-0.00000
 151,0.00000046,-0.00000195,-0.00000028,0.00001440,0.00005841,-0.000021
 16,-0.00023579,0.00015869,0.00041529,-0.00066792,0.00049133,-0.0004388
 0,0.00004661,0.00059099,0.00212210,0.24913059,-0.00003901,-0.00005512,
 -0.00003395,0.00013770,0.00007665,0.00007887,-0.00007585,-0.00002711,-
 0.00004579,0.00004642,0.00002473,0.00002116,-0.00000870,-0.00001062,-0
 .00000892,0.00000195,0.00000264,-0.00000133,-0.00000840,-0.00000082,-0
 .00000245,-0.00000368,0.00000207,-0.00000425,-0.00001230,0.00000119,-0
 .00000864,-0.00008102,0.00007318,-0.00001003,0.00010218,-0.00005773,-0
 .00001766,-0.00002596,0.00001121,0.00000055,0.00002764,-0.00001173,-0.
 00001971,-0.00008355,-0.00003782,0.00023703,-0.00042237,-0.00004270,-0
 .00041339,0.00008903,-0.00019070,0.00001639,0.00001158,0.00003020,0.00
 001445,-0.00003292,-0.00003129,0.00003618,0.00000771,0.00002563,-0.000
 00455,0.00000607,-0.00000919,-0.00000759,0.00000022,0.00000870,0.00003
 596,-0.00000246,-0.00002104,-0.00007285,0.00016154,0.00000876,0.000110
 34,0.00138213,-0.00018093,0.00075744,-0.00110099,-0.00469690,0.0017487
 1,-0.00055848,-0.00084804,-0.00031711,-0.00345318,-0.00171885,-0.00015
 998,-0.01638922,0.01077278,-0.00963508,0.08105279,-0.09348477,0.051808
 23,0.02450386,-0.00488550,0.01453350,0.00000452,0.00000272,0.00000506,
 -0.00000089,-0.00000126,0.00000083,-0.00000040,-0.00000050,0.00000144,
 -0.00000290,-0.00000149,0.00000177,0.00000157,-0.00000473,0.00000850,0
 .00000041,-0.00000486,-0.00000188,-0.00000502,0.00000177,0.00001604,0.
 00000286,-0.00002792,-0.00000830,0.00000051,0.00000404,-0.00000218,0.0
 0000092,0.00000568,0.00000032,0.00000739,-0.00000848,-0.00000351,-0.00
 000319,-0.00000458,-0.00000166,0.00000770,-0.00001124,-0.00000289,-0.0
 0000242,-0.00000305,-0.00000274,-0.00000005,0.00000463,0.00000482,-0.0
 0000214,0.00000456,0.00000296,-0.00002703,-0.00000827,-0.00002505,0.00
 014957,0.00006665,-0.00012423,-0.00077865,0.00037009,-0.00046417,0.001
 09896,0.00071679,-0.00033370,-0.08576951,0.09289226,0.00001841,0.00001
 202,0.00000013,-0.00006997,-0.00003255,-0.00002138,0.00004843,-0.00002
 447,-0.00000426,-0.00001934,-0.00001196,-0.00000567,0.00000509,0.00000
 300,0.00000089,-0.00000190,-0.00000228,-0.00000202,0.00000376,-0.00000
 115,-0.00000062,0.00000182,-0.00000144,0.00000108,0.00000479,0.0000045
 6,0.00000629,0.00003532,-0.00000169,-0.00000737,-0.00002675,0.00006926
 ,0.00002091,0.00004049,-0.00001518,0.00000259,0.00001874,0.00007527,-0
 .00004208,0.00003517,0.00004464,-0.00009706,0.00014561,-0.00007889,0.0
 0002641,-0.00001915,0.00006007,0.00000612,-0.00000327,-0.00000981,-0.0
 0000186,0.00000692,0.00000853,-0.00000316,0.00000060,-0.00001152,0.000
 00373,-0.00000175,0.00000805,-0.00000563,-0.00000340,-0.00000319,-0.00
 000498,0.00000432,-0.00000091,0.00002097,-0.00003447,0.00002196,-0.000
 00082,-0.00031062,-0.00010161,0.00000688,-0.00228041,0.00199856,0.0061
 9543,0.00055161,-0.00031914,-0.00054611,-0.00334272,-0.00043657,0.0055
 5723,-0.00519743,0.00430872,0.00112442,-0.11973145,0.05193588,-0.11221
 268,-0.00523616,0.00056550,0.00170972,-0.00000191,-0.00000262,-0.00000
 007,-0.00000005,-0.00000067,0.00000019,-0.00000020,-0.00000033,-0.0000
 0010,0.00000290,0.00000162,0.00000008,0.00000048,0.00000598,-0.0000040
 1,-0.00000012,-0.00000994,0.00000582,0.00000782,0.00000582,-0.00002080
 ,-0.00004839,0.00000861,0.00000861,0.00000060,-0.00000133,0.00000080,-
 0.00000181,-0.00000035,-0.00000146,-0.00000153,0.00000201,0.00000076,0
 .00000053,0.00000120,0.00000047,-0.00000244,0.00000343,-0.00000006,0.0
 0000121,0.00000071,0.00000079,-0.00000054,-0.00000205,-0.00000082,0.00
 000146,-0.00000122,-0.00000140,0.00000075,-0.00000767,-0.00002208,0.00
 042348,-0.00014773,-0.00084104,-0.00021674,0.00019447,-0.00012847,0.00
 201226,-0.00060174,-0.00307136,0.13115641,-0.05669280,0.10566358,-0.00
 001341,-0.00003663,0.00002088,0.00011727,0.00019968,-0.00016724,-0.000
 01716,0.00017149,0.00003971,0.00008682,0.00003694,-0.00000955,-0.00001
 407,-0.00001675,-0.00000679,0.00000605,0.00000268,0.00000423,-0.000012
 10,0.00000127,-0.00000070,-0.00000519,-0.00000107,-0.00000548,-0.00001
 433,0.00001878,-0.00001550,-0.00010056,-0.00013043,0.00013775,-0.00004
 744,-0.00015464,0.00004948,-0.00004803,-0.00000455,-0.00007784,-0.0002
 8160,0.00020572,-0.00033172,0.00008162,-0.00004662,0.00007745,-0.00033
 564,-0.00010704,-0.00001715,-0.00000914,0.00003087,-0.00000803,-0.0000
 1257,0.00000597,-0.00000886,-0.00000171,0.00000641,-0.00002142,-0.0000
 1040,0.00000562,-0.00000263,0.00000852,-0.00001181,0.00001502,0.000001
 36,0.00000322,-0.00001051,-0.00001156,0.00000964,0.00000437,0.00030803
 ,0.00017083,0.00013228,-0.00003051,-0.00089228,0.00172796,-0.01208723,
 -0.01610026,-0.00538543,-0.00121947,0.00246527,-0.00468358,-0.00003968
 ,0.00080496,0.00031575,0.00268861,0.00035536,-0.00258393,0.00561749,0.
 00390636,-0.00003881,-0.20867324,-0.13111106,-0.06340834,0.00000591,0.
 00000830,0.00000013,-0.00000014,0.00000033,-0.00000090,-0.00000052,0.,
 0.00000043,-0.00000323,-0.00000123,0.00000101,-0.00000186,-0.00000867,
 0.00001071,0.00001226,0.00000299,-0.00000200,0.00000660,0.00000968,0.0
 0000122,-0.00000669,0.00004583,-0.00001083,0.00000313,-0.00000265,0.00
 000329,0.00000177,-0.00000557,0.00000317,-0.00000020,0.00000048,-0.000
 00074,0.00000174,0.00000379,0.00000101,0.00000058,-0.00000049,0.000001
 93,-0.00000043,0.00000168,0.00000008,0.00000243,0.00000135,0.00000209,
 -0.00000109,-0.00000043,-0.00000054,0.00005544,0.00060106,0.00018329,-
 0.00060469,-0.00089382,-0.00017498,-0.00022706,-0.00002019,0.00043550,
 0.00012833,0.00020270,0.00000304,-0.00054426,0.00008507,0.00202355,0.2
 1524126,0.00004902,-0.00004697,0.00001512,0.00012085,0.00001320,-0.000
 15614,0.00007906,0.00031975,-0.00000124,-0.00014342,-0.00006567,-0.000
 04737,0.00001204,0.00001164,0.00001745,-0.00000855,-0.00000840,-0.0000
 0676,0.00001642,-0.00000215,0.00000197,0.00000876,-0.00000060,0.000005
 38,0.00001794,0.00000348,0.00001786,0.00000314,-0.00016939,0.00025688,
 -0.00027660,0.00001330,-0.00003481,0.00003626,-0.00002990,-0.00000179,
 -0.00016283,0.00038240,-0.00008398,0.00002198,0.00002564,-0.00013459,0
 .00013633,-0.00003913,0.00006302,-0.00003198,0.00005969,-0.00000772,0.
 00000454,-0.00002388,-0.00000354,0.00001813,0.00001040,-0.00001140,0.0
 0000195,-0.00001429,0.00000334,-0.00000615,0.00000988,-0.00000235,0.00
 000025,-0.00000622,-0.00001170,0.00000330,0.00000043,0.00003228,-0.000
 08845,0.00002612,-0.00004991,0.00098094,0.00043096,0.00015234,0.009293
 68,0.00933428,0.00372507,0.00159204,0.00006185,0.00210476,0.00071141,-
 0.00035530,0.00027998,0.00116713,-0.00444573,0.00283975,-0.02312651,-0
 .01206262,-0.00876602,-0.13049039,-0.16566436,-0.04397957,-0.00000467,
 -0.00000997,-0.00000186,0.00000049,0.00000089,0.00000081,0.00000097,0.
 00000003,-0.00000135,0.00000556,0.00000197,-0.00000121,0.00000810,0.00
 000751,-0.00001189,-0.00000089,-0.00000113,0.00000786,0.00000074,-0.00
 000426,-0.00001780,-0.00002781,-0.00000164,0.00000247,-0.00000081,-0.0
 0000157,0.00000012,0.00000050,-0.00000278,-0.00000369,-0.00000381,0.00
 000334,0.00000156,0.00000109,0.00000108,0.00000017,-0.00000392,0.00000
 529,0.00000034,0.00000141,0.00000093,0.00000160,-0.00000037,-0.0000030
 5,-0.00000271,0.00000141,-0.00000188,-0.00000096,-0.00002988,0.0001034
 9,-0.00030573,0.00049300,0.00037547,0.00021039,-0.00002666,0.00001268,
 -0.00021941,-0.00106311,-0.00069328,-0.00045613,0.00052646,0.00128031,
 -0.00081907,0.14018191,0.17115813,0.00004877,-0.00009329,-0.00005364,-
 0.00029668,0.00021169,-0.00011044,0.00016634,-0.00005884,-0.00009065,0
 .00023400,0.00009931,0.00006648,-0.00003558,-0.00003374,-0.00003622,0.
 00001586,0.00000119,-0.00000340,-0.00002335,-0.00000349,-0.00000428,0.
 00000622,-0.00000296,-0.00000332,-0.00004251,0.00000627,0.00000346,0.0
 0012459,0.00000244,0.00031966,-0.00018145,0.00001780,-0.00071270,0.000
 06856,-0.00005210,0.00004974,0.00027220,0.00046074,0.00020725,0.000072
 54,-0.00007058,-0.00009809,-0.00001546,-0.00009777,-0.00002712,0.00005
 274,-0.00007408,-0.00000431,-0.00002074,0.00001246,0.00001096,-0.00001
 453,-0.00001660,0.00002977,0.00000900,0.00000167,-0.00000006,0.0000035
 5,0.00000531,-0.00001513,-0.00000516,0.00000161,0.00001745,0.00000042,
 -0.00001106,-0.00002263,0.00017694,0.00007152,0.00004005,0.00113998,-0
 .00064152,-0.00190238,-0.00960270,-0.00956487,0.00072382,-0.00463497,0
 .00253216,0.00388924,0.00030193,0.00047937,-0.00083552,-0.00258622,0.0
 0239385,0.00578965,0.00477510,0.00492697,0.00605990,-0.06364718,-0.044
 13009,-0.06409815,0.00000458,0.00000482,0.00000712,-0.00000353,-0.0000
 0515,-0.00000074,-0.00000242,-0.00000224,0.00000020,-0.00000353,0.0000
 0035,0.00000029,0.00002671,0.00000325,-0.00000767,-0.00001514,0.000004
 23,0.00002615,-0.00000146,0.00001317,-0.00000405,-0.00005160,-0.000033
 17,0.00001938,0.00000420,-0.00000019,-0.00000038,-0.00000284,-0.000000
 50,-0.00000570,0.00000393,-0.00000405,-0.00000161,-0.00000208,-0.00000
 076,-0.00000007,0.00000263,-0.00000367,-0.00000174,0.00000006,-0.00000
 072,-0.00000053,0.00000148,0.00000171,0.00000220,-0.00000008,0.0000027
 3,-0.00000274,-0.00027959,-0.00023084,-0.00029204,-0.00047748,-0.00053
 873,-0.00000894,0.00043848,-0.00020842,-0.00081018,0.00024169,0.000238
 77,0.00012157,0.00197561,-0.00101414,-0.00331653,0.07177816,0.04540019
 ,0.05508666\\-0.00000015,0.00000036,0.00000069,0.00000004,-0.00000010,
 0.00000033,0.00000008,0.00000017,0.00000038,-0.00000005,0.00000019,0.0
 0000087,-0.00000023,0.00000012,0.00000110,-0.00000033,0.00000005,0.000
 00147,-0.00000023,0.00000028,0.00000150,-0.00000004,0.00000033,0.00000
 131,0.00000009,0.00000035,0.00000092,0.00000004,0.00000034,0.00000048,
 0.00000045,0.00000024,-0.00000021,0.00000065,0.00000072,-0.00000053,-0
 .00000028,0.00000057,-0.00000032,-0.00000004,0.00000021,-0.00000006,-0
 .00000172,-0.00000013,-0.00000080,-0.00000047,0.00000061,0.00000015,-0
 .00000016,-0.00000082,0.00000019,0.00000038,-0.00000048,-0.00000074,-0
 .00000043,-0.00000052,0.00000023,-0.00000006,-0.00000042,-0.00000018,-
 0.00000002,0.00000007,0.00000021,0.00000042,-0.00000027,0.00000045,0.0
 0000227,0.,-0.00000011,-0.00000032,0.00000027,-0.00000074,0.00000014,-
 0.00000017,-0.00000048,0.00000019,-0.00000011,-0.00000117,0.00000007,-
 0.00000014,-0.00000147,0.00000019,-0.00000026,-0.00000124,-0.00000004,
 -0.00000037,-0.00000098,0.00000041,-0.00000048,-0.00000041,-0.00000033
 ,-0.00000006,0.00000111,-0.00000046,-0.00000007,0.00000177,-0.00000029
 ,0.00000014,0.00000186,0.00000002,0.00000045,0.00000129,0.00000016,0.0
 0000049,0.00000061,0.00000065,0.00000065,-0.00000046,0.00000067,0.0000
 0080,-0.00000045,0.00000062,0.00000046,-0.00000075,-0.00000019,-0.0000
 0047,-0.00000059,-0.00000059,-0.00000070,-0.00000015,-0.00000060,-0.00
 000082,-0.00000021,-0.00000063,-0.00000067,0.00000021,-0.00000004,0.00
 000019,0.00000034,-0.00000028,-0.00000007,0.00000070,0.00000016,0.0000
 0011,-0.00000025,0.00000025,0.00000028,0.00000014,-0.00000011,-0.00000
 018,-0.00000014,0.00000008,0.,-0.00000125,0.00000024,-0.00000019,-0.00
 000170,0.00000012,-0.00000032,-0.00000158,-0.00000014,-0.00000044,-0.0
 0000094,-0.00000018,-0.00000021,-0.00000037\\\@
 The archive entry for this job was punched.


 TIME GOES, YOU SAY?  AH NO!
 ALAS, TIME STAYS, WE GO.
    -- A. DOBSON (1840-1921)
 Job cpu time:       0 days 17 hours  7 minutes 48.7 seconds.
 Elapsed time:       0 days  1 hours  4 minutes 19.8 seconds.
 File lengths (MBytes):  RWF=   1796 Int=      0 D2E=      0 Chk=     46 Scr=      1
 Normal termination of Gaussian 16 at Tue Sep 26 17:42:33 2023.
