 Entering Gaussian System, Link 0=g16
 Input=spiro-TS_ro-RR_R.com
 Output=spiro-TS_ro-RR_R.log
 Initial command:
 /gpfs1/apps/software/Gaussian16/AVX2/g16/l1.exe "/tmp/ag266/222017/Gau-52698.inp" -scrdir="/tmp/ag266/222017/"
 Entering Link 1 = /gpfs1/apps/software/Gaussian16/AVX2/g16/l1.exe PID=     52699.
  
 Copyright (c) 1988-2019, Gaussian, Inc.  All Rights Reserved.
  
 This is part of the Gaussian(R) 16 program.  It is based on
 the Gaussian(R) 09 system (copyright 2009, Gaussian, Inc.),
 the Gaussian(R) 03 system (copyright 2003, Gaussian, Inc.),
 the Gaussian(R) 98 system (copyright 1998, Gaussian, Inc.),
 the Gaussian(R) 94 system (copyright 1995, Gaussian, Inc.),
 the Gaussian 92(TM) system (copyright 1992, Gaussian, Inc.),
 the Gaussian 90(TM) system (copyright 1990, Gaussian, Inc.),
 the Gaussian 88(TM) system (copyright 1988, Gaussian, Inc.),
 the Gaussian 86(TM) system (copyright 1986, Carnegie Mellon
 University), and the Gaussian 82(TM) system (copyright 1983,
 Carnegie Mellon University). Gaussian is a federally registered
 trademark of Gaussian, Inc.
  
 This software contains proprietary and confidential information,
 including trade secrets, belonging to Gaussian, Inc.
  
 This software is provided under written license and may be
 used, copied, transmitted, or stored only in accord with that
 written license.
  
 The following legend is applicable only to US Government
 contracts under FAR:
  
                    RESTRICTED RIGHTS LEGEND
  
 Use, reproduction and disclosure by the US Government is
 subject to restrictions as set forth in subparagraphs (a)
 and (c) of the Commercial Computer Software - Restricted
 Rights clause in FAR 52.227-19.
  
 Gaussian, Inc.
 340 Quinnipiac St., Bldg. 40, Wallingford CT 06492
  
  
 ---------------------------------------------------------------
 Warning -- This program may not be used in any manner that
 competes with the business of Gaussian, Inc. or will provide
 assistance to any competitor of Gaussian, Inc.  The licensee
 of this program is prohibited from giving any competitor of
 Gaussian, Inc. access to this program.  By using this program,
 the user acknowledges that Gaussian, Inc. is engaged in the
 business of creating and licensing software in the field of
 computational chemistry and represents and warrants to the
 licensee that it is not a competitor of Gaussian, Inc. and that
 it will not use this program in any manner prohibited above.
 ---------------------------------------------------------------
  

 Cite this work as:
 Gaussian 16, Revision C.01,
 M. J. Frisch, G. W. Trucks, H. B. Schlegel, G. E. Scuseria, 
 M. A. Robb, J. R. Cheeseman, G. Scalmani, V. Barone, 
 G. A. Petersson, H. Nakatsuji, X. Li, M. Caricato, A. V. Marenich, 
 J. Bloino, B. G. Janesko, R. Gomperts, B. Mennucci, H. P. Hratchian, 
 J. V. Ortiz, A. F. Izmaylov, J. L. Sonnenberg, D. Williams-Young, 
 F. Ding, F. Lipparini, F. Egidi, J. Goings, B. Peng, A. Petrone, 
 T. Henderson, D. Ranasinghe, V. G. Zakrzewski, J. Gao, N. Rega, 
 G. Zheng, W. Liang, M. Hada, M. Ehara, K. Toyota, R. Fukuda, 
 J. Hasegawa, M. Ishida, T. Nakajima, Y. Honda, O. Kitao, H. Nakai, 
 T. Vreven, K. Throssell, J. A. Montgomery, Jr., J. E. Peralta, 
 F. Ogliaro, M. J. Bearpark, J. J. Heyd, E. N. Brothers, K. N. Kudin, 
 V. N. Staroverov, T. A. Keith, R. Kobayashi, J. Normand, 
 K. Raghavachari, A. P. Rendell, J. C. Burant, S. S. Iyengar, 
 J. Tomasi, M. Cossi, J. M. Millam, M. Klene, C. Adamo, R. Cammi, 
 J. W. Ochterski, R. L. Martin, K. Morokuma, O. Farkas, 
 J. B. Foresman, and D. J. Fox, Gaussian, Inc., Wallingford CT, 2019.
 
 ******************************************
 Gaussian 16:  ES64L-G16RevC.01  3-Jul-2019
                26-Sep-2023 
 ******************************************
 %NProc=16
 Will use up to   16 processors via shared memory.
 %mem=16GB
 %chk=spiro-TS_ro-RR_R.chk
 ----------------------------------------------------------------------
 #P RM062X/gen opt=(TS,CalcFC,NoEigentest) freq scrf=(smd,solvent=Dichl
 oromethane)
 ----------------------------------------------------------------------
 1/5=1,10=4,11=1,18=20,26=3,38=1/1,3;
 2/9=110,12=2,17=6,18=5,40=1/2;
 3/5=7,11=2,25=1,30=1,70=32201,71=2,72=9,74=-55,116=1,140=1/1,2,3;
 4//1;
 5/5=2,38=5,53=9/2;
 8/6=4,10=90,11=11/1;
 11/6=1,8=1,9=11,15=111,16=1/1,2,10;
 10/6=1,13=1/2;
 6/7=2,8=2,9=2,10=2,28=1/1;
 7/10=1,25=1/1,2,3,16;
 1/5=1,10=4,11=1,18=20,26=3/3(2);
 2/9=110/2;
 99//99;
 2/9=110/2;
 3/5=7,6=1,11=2,25=1,30=1,70=32205,71=1,72=9,74=-55,82=7,116=1/1,2,3;
 4/5=5,16=3,69=1/1;
 5/5=2,38=5,53=9/2;
 7//1,2,3,16;
 1/5=1,11=1,18=20,26=3/3(-5);
 2/9=110/2;
 6/7=2,8=2,9=2,10=2,19=2,28=1/1;
 99/9=1/99;
 Leave Link    1 at Tue Sep 26 15:16:31 2023, MaxMem=  2147483648 cpu:              16.9 elap:               1.1
 (Enter /gpfs1/apps/software/Gaussian16/AVX2/g16/l101.exe)
 --------------------------------
 spiro-TS_ro-RR_R ; M062X/def2SVP
 --------------------------------
 Symbolic Z-matrix:
 Charge =  0 Multiplicity = 1
 O                    -1.1431    1.43947   0.11809 
 C                    -1.04414   0.27666  -0.27055 
 N                    -2.03844  -0.63521  -0.36714 
 C                    -3.40936  -0.51018  -0.04694 
 C                    -3.96186   0.72961   0.30628 
 C                    -5.31648   0.80963   0.62451 
 C                    -6.13006  -0.322     0.59347 
 C                    -5.57293  -1.55005   0.23725 
 C                    -4.2216   -1.65216  -0.082 
 N                    -1.58617  -1.84419  -0.91877 
 C                    -0.32494  -1.7699   -1.11368 
 C                     0.40754  -2.85882  -1.81413 
 C                     0.26958  -0.39886  -0.75212 
 O                     0.88211   0.23737  -1.7595 
 C                     2.15409   0.79807   0.03468 
 N                     1.43423   2.12612   0.05268 
 H                     0.39184   1.93972  -0.00771 
 C                     1.68897   2.82985   1.34647 
 C                     0.97651   4.17267   1.32605 
 O                     1.3906    4.95043   0.23467 
 C                     1.10068   4.31443  -0.98719 
 C                     1.82027   2.98389  -1.10453 
 O                     3.33376   0.83452  -0.1107 
 C                     1.28941  -0.38752   0.4627 
 C                     2.08132  -1.66001   0.61012 
 C                     3.06993  -2.02449  -0.31485 
 C                     3.72446  -3.24906  -0.19927 
 C                     3.39392  -4.13289   0.82949 
 C                     2.40554  -3.78148   1.74867 
 C                     1.7595   -2.54957   1.64114 
 H                    -3.33652   1.6176    0.3307 
 H                    -5.73796   1.77886   0.89725 
 H                    -7.18948  -0.24756   0.84284 
 H                    -6.19513  -2.4463    0.20637 
 H                    -3.7851   -2.60847  -0.36221 
 H                     1.13299  -2.39928  -2.49981 
 H                    -0.29889  -3.48337  -2.37591 
 H                     0.95886  -3.49358  -1.10545 
 H                     2.77544   2.96093   1.43984 
 H                     1.32001   2.1956    2.16424 
 H                     1.21834   4.72046   2.24584 
 H                    -0.11849   4.01229   1.29767 
 H                     1.43192   4.97589  -1.79757 
 H                     0.00893   4.16354  -1.09188 
 H                     2.909     3.11484  -1.06496 
 H                     1.5298    2.42511  -2.00176 
 H                     0.8135   -0.14741   1.42931 
 H                     3.3098   -1.35229  -1.13779 
 H                     4.49329  -3.51985  -0.92529 
 H                     3.90617  -5.09293   0.91467 
 H                     2.1389   -4.46509   2.55669 
 H                     0.98632  -2.27691   2.36381 
 
 ITRead=  0  0  0  0  0  0  0  0  0  0  0  0  0  0  0  0  0  0  0  0
 ITRead=  0  0  0  0  0  0  0  0  0  0  0  0  0  0  0  0  0  0  0  0
 ITRead=  0  0  0  0  0  0  0  0  0  0  0  0
 MicOpt= -1 -1 -1 -1 -1 -1 -1 -1 -1 -1 -1 -1 -1 -1 -1 -1 -1 -1 -1 -1
 MicOpt= -1 -1 -1 -1 -1 -1 -1 -1 -1 -1 -1 -1 -1 -1 -1 -1 -1 -1 -1 -1
 MicOpt= -1 -1 -1 -1 -1 -1 -1 -1 -1 -1 -1 -1
 NAtoms=     52 NQM=       52 NQMF=       0 NMMI=      0 NMMIF=      0
                NMic=       0 NMicF=      0.
                    Isotopes and Nuclear Properties:
 (Nuclear quadrupole moments (NQMom) in fm**2, nuclear magnetic moments (NMagM)
  in nuclear magnetons)

  Atom         1           2           3           4           5           6           7           8           9          10
 IAtWgt=          16          12          14          12          12          12          12          12          12          14
 AtmWgt=  15.9949146  12.0000000  14.0030740  12.0000000  12.0000000  12.0000000  12.0000000  12.0000000  12.0000000  14.0030740
 NucSpn=           0           0           2           0           0           0           0           0           0           2
 AtZEff=   0.0000000   0.0000000   0.0000000   0.0000000   0.0000000   0.0000000   0.0000000   0.0000000   0.0000000   0.0000000
 NQMom=    0.0000000   0.0000000   2.0440000   0.0000000   0.0000000   0.0000000   0.0000000   0.0000000   0.0000000   2.0440000
 NMagM=    0.0000000   0.0000000   0.4037610   0.0000000   0.0000000   0.0000000   0.0000000   0.0000000   0.0000000   0.4037610
 AtZNuc=   8.0000000   6.0000000   7.0000000   6.0000000   6.0000000   6.0000000   6.0000000   6.0000000   6.0000000   7.0000000

  Atom        11          12          13          14          15          16          17          18          19          20
 IAtWgt=          12          12          12          16          12          14           1          12          12          16
 AtmWgt=  12.0000000  12.0000000  12.0000000  15.9949146  12.0000000  14.0030740   1.0078250  12.0000000  12.0000000  15.9949146
 NucSpn=           0           0           0           0           0           2           1           0           0           0
 AtZEff=   0.0000000   0.0000000   0.0000000   0.0000000   0.0000000   0.0000000   0.0000000   0.0000000   0.0000000   0.0000000
 NQMom=    0.0000000   0.0000000   0.0000000   0.0000000   0.0000000   2.0440000   0.0000000   0.0000000   0.0000000   0.0000000
 NMagM=    0.0000000   0.0000000   0.0000000   0.0000000   0.0000000   0.4037610   2.7928460   0.0000000   0.0000000   0.0000000
 AtZNuc=   6.0000000   6.0000000   6.0000000   8.0000000   6.0000000   7.0000000   1.0000000   6.0000000   6.0000000   8.0000000

  Atom        21          22          23          24          25          26          27          28          29          30
 IAtWgt=          12          12          16          12          12          12          12          12          12          12
 AtmWgt=  12.0000000  12.0000000  15.9949146  12.0000000  12.0000000  12.0000000  12.0000000  12.0000000  12.0000000  12.0000000
 NucSpn=           0           0           0           0           0           0           0           0           0           0
 AtZEff=   0.0000000   0.0000000   0.0000000   0.0000000   0.0000000   0.0000000   0.0000000   0.0000000   0.0000000   0.0000000
 NQMom=    0.0000000   0.0000000   0.0000000   0.0000000   0.0000000   0.0000000   0.0000000   0.0000000   0.0000000   0.0000000
 NMagM=    0.0000000   0.0000000   0.0000000   0.0000000   0.0000000   0.0000000   0.0000000   0.0000000   0.0000000   0.0000000
 AtZNuc=   6.0000000   6.0000000   8.0000000   6.0000000   6.0000000   6.0000000   6.0000000   6.0000000   6.0000000   6.0000000

  Atom        31          32          33          34          35          36          37          38          39          40
 IAtWgt=           1           1           1           1           1           1           1           1           1           1
 AtmWgt=   1.0078250   1.0078250   1.0078250   1.0078250   1.0078250   1.0078250   1.0078250   1.0078250   1.0078250   1.0078250
 NucSpn=           1           1           1           1           1           1           1           1           1           1
 AtZEff=   0.0000000   0.0000000   0.0000000   0.0000000   0.0000000   0.0000000   0.0000000   0.0000000   0.0000000   0.0000000
 NQMom=    0.0000000   0.0000000   0.0000000   0.0000000   0.0000000   0.0000000   0.0000000   0.0000000   0.0000000   0.0000000
 NMagM=    2.7928460   2.7928460   2.7928460   2.7928460   2.7928460   2.7928460   2.7928460   2.7928460   2.7928460   2.7928460
 AtZNuc=   1.0000000   1.0000000   1.0000000   1.0000000   1.0000000   1.0000000   1.0000000   1.0000000   1.0000000   1.0000000

  Atom        41          42          43          44          45          46          47          48          49          50
 IAtWgt=           1           1           1           1           1           1           1           1           1           1
 AtmWgt=   1.0078250   1.0078250   1.0078250   1.0078250   1.0078250   1.0078250   1.0078250   1.0078250   1.0078250   1.0078250
 NucSpn=           1           1           1           1           1           1           1           1           1           1
 AtZEff=   0.0000000   0.0000000   0.0000000   0.0000000   0.0000000   0.0000000   0.0000000   0.0000000   0.0000000   0.0000000
 NQMom=    0.0000000   0.0000000   0.0000000   0.0000000   0.0000000   0.0000000   0.0000000   0.0000000   0.0000000   0.0000000
 NMagM=    2.7928460   2.7928460   2.7928460   2.7928460   2.7928460   2.7928460   2.7928460   2.7928460   2.7928460   2.7928460
 AtZNuc=   1.0000000   1.0000000   1.0000000   1.0000000   1.0000000   1.0000000   1.0000000   1.0000000   1.0000000   1.0000000

  Atom        51          52
 IAtWgt=           1           1
 AtmWgt=   1.0078250   1.0078250
 NucSpn=           1           1
 AtZEff=   0.0000000   0.0000000
 NQMom=    0.0000000   0.0000000
 NMagM=    2.7928460   2.7928460
 AtZNuc=   1.0000000   1.0000000
 Leave Link  101 at Tue Sep 26 15:16:31 2023, MaxMem=  2147483648 cpu:              10.1 elap:               0.6
 (Enter /gpfs1/apps/software/Gaussian16/AVX2/g16/l103.exe)

 GradGradGradGradGradGradGradGradGradGradGradGradGradGradGradGradGradGrad
 Berny optimization.
 Initialization pass.
                           ----------------------------
                           !    Initial Parameters    !
                           ! (Angstroms and Degrees)  !
 --------------------------                            --------------------------
 ! Name  Definition              Value          Derivative Info.                !
 --------------------------------------------------------------------------------
 ! R1    R(1,2)                  1.23           calculate D2E/DX2 analytically  !
 ! R2    R(2,3)                  1.3526         calculate D2E/DX2 analytically  !
 ! R3    R(2,13)                 1.5537         calculate D2E/DX2 analytically  !
 ! R4    R(3,4)                  1.4134         calculate D2E/DX2 analytically  !
 ! R5    R(3,10)                 1.4037         calculate D2E/DX2 analytically  !
 ! R6    R(4,5)                  1.4025         calculate D2E/DX2 analytically  !
 ! R7    R(4,9)                  1.4018         calculate D2E/DX2 analytically  !
 ! R8    R(5,6)                  1.3938         calculate D2E/DX2 analytically  !
 ! R9    R(5,31)                 1.0864         calculate D2E/DX2 analytically  !
 ! R10   R(6,7)                  1.3941         calculate D2E/DX2 analytically  !
 ! R11   R(6,32)                 1.0915         calculate D2E/DX2 analytically  !
 ! R12   R(7,8)                  1.3948         calculate D2E/DX2 analytically  !
 ! R13   R(7,33)                 1.0909         calculate D2E/DX2 analytically  !
 ! R14   R(8,9)                  1.3923         calculate D2E/DX2 analytically  !
 ! R15   R(8,34)                 1.0915         calculate D2E/DX2 analytically  !
 ! R16   R(9,35)                 1.0879         calculate D2E/DX2 analytically  !
 ! R17   R(10,11)                1.2784         calculate D2E/DX2 analytically  !
 ! R18   R(11,12)                1.4876         calculate D2E/DX2 analytically  !
 ! R19   R(11,13)                1.5375         calculate D2E/DX2 analytically  !
 ! R20   R(12,36)                1.0989         calculate D2E/DX2 analytically  !
 ! R21   R(12,37)                1.0976         calculate D2E/DX2 analytically  !
 ! R22   R(12,38)                1.0996         calculate D2E/DX2 analytically  !
 ! R23   R(13,14)                1.3397         calculate D2E/DX2 analytically  !
 ! R24   R(13,24)                1.5862         calculate D2E/DX2 analytically  !
 ! R25   R(15,16)                1.5107         calculate D2E/DX2 analytically  !
 ! R26   R(15,23)                1.1892         calculate D2E/DX2 analytically  !
 ! R27   R(15,24)                1.5286         calculate D2E/DX2 analytically  !
 ! R28   R(16,17)                1.0607         calculate D2E/DX2 analytically  !
 ! R29   R(16,18)                1.4947         calculate D2E/DX2 analytically  !
 ! R30   R(16,22)                1.4913         calculate D2E/DX2 analytically  !
 ! R31   R(18,19)                1.5203         calculate D2E/DX2 analytically  !
 ! R32   R(18,39)                1.0983         calculate D2E/DX2 analytically  !
 ! R33   R(18,40)                1.0987         calculate D2E/DX2 analytically  !
 ! R34   R(19,20)                1.4027         calculate D2E/DX2 analytically  !
 ! R35   R(19,41)                1.0975         calculate D2E/DX2 analytically  !
 ! R36   R(19,42)                1.107          calculate D2E/DX2 analytically  !
 ! R37   R(20,21)                1.4077         calculate D2E/DX2 analytically  !
 ! R38   R(21,22)                1.5172         calculate D2E/DX2 analytically  !
 ! R39   R(21,43)                1.0973         calculate D2E/DX2 analytically  !
 ! R40   R(21,44)                1.1071         calculate D2E/DX2 analytically  !
 ! R41   R(22,45)                1.0973         calculate D2E/DX2 analytically  !
 ! R42   R(22,46)                1.0962         calculate D2E/DX2 analytically  !
 ! R43   R(24,25)                1.506          calculate D2E/DX2 analytically  !
 ! R44   R(24,47)                1.1038         calculate D2E/DX2 analytically  !
 ! R45   R(25,26)                1.4021         calculate D2E/DX2 analytically  !
 ! R46   R(25,30)                1.3992         calculate D2E/DX2 analytically  !
 ! R47   R(26,27)                1.3933         calculate D2E/DX2 analytically  !
 ! R48   R(26,48)                1.0893         calculate D2E/DX2 analytically  !
 ! R49   R(27,28)                1.396          calculate D2E/DX2 analytically  !
 ! R50   R(27,49)                1.0916         calculate D2E/DX2 analytically  !
 ! R51   R(28,29)                1.3947         calculate D2E/DX2 analytically  !
 ! R52   R(28,50)                1.0915         calculate D2E/DX2 analytically  !
 ! R53   R(29,30)                1.3952         calculate D2E/DX2 analytically  !
 ! R54   R(29,51)                1.0915         calculate D2E/DX2 analytically  !
 ! R55   R(30,52)                1.0929         calculate D2E/DX2 analytically  !
 ! A1    A(1,2,3)              126.9238         calculate D2E/DX2 analytically  !
 ! A2    A(1,2,13)             125.2376         calculate D2E/DX2 analytically  !
 ! A3    A(3,2,13)             107.8371         calculate D2E/DX2 analytically  !
 ! A4    A(2,3,4)              129.5851         calculate D2E/DX2 analytically  !
 ! A5    A(2,3,10)             111.8298         calculate D2E/DX2 analytically  !
 ! A6    A(4,3,10)             118.5377         calculate D2E/DX2 analytically  !
 ! A7    A(3,4,5)              121.1549         calculate D2E/DX2 analytically  !
 ! A8    A(3,4,9)              118.966          calculate D2E/DX2 analytically  !
 ! A9    A(5,4,9)              119.8788         calculate D2E/DX2 analytically  !
 ! A10   A(4,5,6)              119.4133         calculate D2E/DX2 analytically  !
 ! A11   A(4,5,31)             120.0966         calculate D2E/DX2 analytically  !
 ! A12   A(6,5,31)             120.4901         calculate D2E/DX2 analytically  !
 ! A13   A(5,6,7)              121.0313         calculate D2E/DX2 analytically  !
 ! A14   A(5,6,32)             118.9015         calculate D2E/DX2 analytically  !
 ! A15   A(7,6,32)             120.0668         calculate D2E/DX2 analytically  !
 ! A16   A(6,7,8)              119.1621         calculate D2E/DX2 analytically  !
 ! A17   A(6,7,33)             120.4153         calculate D2E/DX2 analytically  !
 ! A18   A(8,7,33)             120.4226         calculate D2E/DX2 analytically  !
 ! A19   A(7,8,9)              120.7193         calculate D2E/DX2 analytically  !
 ! A20   A(7,8,34)             120.1655         calculate D2E/DX2 analytically  !
 ! A21   A(9,8,34)             119.1152         calculate D2E/DX2 analytically  !
 ! A22   A(4,9,8)              119.7948         calculate D2E/DX2 analytically  !
 ! A23   A(4,9,35)             119.3443         calculate D2E/DX2 analytically  !
 ! A24   A(8,9,35)             120.8607         calculate D2E/DX2 analytically  !
 ! A25   A(3,10,11)            109.1319         calculate D2E/DX2 analytically  !
 ! A26   A(10,11,12)           121.0011         calculate D2E/DX2 analytically  !
 ! A27   A(10,11,13)           113.4195         calculate D2E/DX2 analytically  !
 ! A28   A(12,11,13)           124.9651         calculate D2E/DX2 analytically  !
 ! A29   A(11,12,36)           108.2252         calculate D2E/DX2 analytically  !
 ! A30   A(11,12,37)           109.9141         calculate D2E/DX2 analytically  !
 ! A31   A(11,12,38)           111.4674         calculate D2E/DX2 analytically  !
 ! A32   A(36,12,37)           110.089          calculate D2E/DX2 analytically  !
 ! A33   A(36,12,38)           108.2128         calculate D2E/DX2 analytically  !
 ! A34   A(37,12,38)           108.9108         calculate D2E/DX2 analytically  !
 ! A35   A(2,13,11)             97.6799         calculate D2E/DX2 analytically  !
 ! A36   A(2,13,14)            114.4044         calculate D2E/DX2 analytically  !
 ! A37   A(2,13,24)            107.6462         calculate D2E/DX2 analytically  !
 ! A38   A(11,13,14)           115.0525         calculate D2E/DX2 analytically  !
 ! A39   A(11,13,24)           115.791          calculate D2E/DX2 analytically  !
 ! A40   A(14,13,24)           106.1732         calculate D2E/DX2 analytically  !
 ! A41   A(16,15,23)           116.5647         calculate D2E/DX2 analytically  !
 ! A42   A(16,15,24)           114.1395         calculate D2E/DX2 analytically  !
 ! A43   A(23,15,24)           128.2565         calculate D2E/DX2 analytically  !
 ! A44   A(15,16,17)           108.2475         calculate D2E/DX2 analytically  !
 ! A45   A(15,16,18)           110.0598         calculate D2E/DX2 analytically  !
 ! A46   A(15,16,22)           111.9039         calculate D2E/DX2 analytically  !
 ! A47   A(17,16,18)           107.4291         calculate D2E/DX2 analytically  !
 ! A48   A(17,16,22)           108.1386         calculate D2E/DX2 analytically  !
 ! A49   A(18,16,22)           110.9016         calculate D2E/DX2 analytically  !
 ! A50   A(16,18,19)           108.9275         calculate D2E/DX2 analytically  !
 ! A51   A(16,18,39)           107.3601         calculate D2E/DX2 analytically  !
 ! A52   A(16,18,40)           108.376          calculate D2E/DX2 analytically  !
 ! A53   A(19,18,39)           111.0574         calculate D2E/DX2 analytically  !
 ! A54   A(19,18,40)           111.2546         calculate D2E/DX2 analytically  !
 ! A55   A(39,18,40)           109.7437         calculate D2E/DX2 analytically  !
 ! A56   A(18,19,20)           111.2151         calculate D2E/DX2 analytically  !
 ! A57   A(18,19,41)           109.0467         calculate D2E/DX2 analytically  !
 ! A58   A(18,19,42)           109.6286         calculate D2E/DX2 analytically  !
 ! A59   A(20,19,41)           108.0756         calculate D2E/DX2 analytically  !
 ! A60   A(20,19,42)           110.6331         calculate D2E/DX2 analytically  !
 ! A61   A(41,19,42)           108.1641         calculate D2E/DX2 analytically  !
 ! A62   A(19,20,21)           111.3488         calculate D2E/DX2 analytically  !
 ! A63   A(20,21,22)           111.4493         calculate D2E/DX2 analytically  !
 ! A64   A(20,21,43)           107.8499         calculate D2E/DX2 analytically  !
 ! A65   A(20,21,44)           110.2893         calculate D2E/DX2 analytically  !
 ! A66   A(22,21,43)           109.1698         calculate D2E/DX2 analytically  !
 ! A67   A(22,21,44)           109.9307         calculate D2E/DX2 analytically  !
 ! A68   A(43,21,44)           108.0603         calculate D2E/DX2 analytically  !
 ! A69   A(16,22,21)           108.7618         calculate D2E/DX2 analytically  !
 ! A70   A(16,22,45)           107.3078         calculate D2E/DX2 analytically  !
 ! A71   A(16,22,46)           105.8633         calculate D2E/DX2 analytically  !
 ! A72   A(21,22,45)           111.2932         calculate D2E/DX2 analytically  !
 ! A73   A(21,22,46)           112.6223         calculate D2E/DX2 analytically  !
 ! A74   A(45,22,46)           110.6871         calculate D2E/DX2 analytically  !
 ! A75   A(13,24,15)            98.9043         calculate D2E/DX2 analytically  !
 ! A76   A(13,24,25)           114.0171         calculate D2E/DX2 analytically  !
 ! A77   A(13,24,47)           113.2669         calculate D2E/DX2 analytically  !
 ! A78   A(15,24,25)           112.663          calculate D2E/DX2 analytically  !
 ! A79   A(15,24,47)           108.6859         calculate D2E/DX2 analytically  !
 ! A80   A(25,24,47)           108.9525         calculate D2E/DX2 analytically  !
 ! A81   A(24,25,26)           121.7252         calculate D2E/DX2 analytically  !
 ! A82   A(24,25,30)           119.2318         calculate D2E/DX2 analytically  !
 ! A83   A(26,25,30)           118.8828         calculate D2E/DX2 analytically  !
 ! A84   A(25,26,27)           120.3303         calculate D2E/DX2 analytically  !
 ! A85   A(25,26,48)           119.554          calculate D2E/DX2 analytically  !
 ! A86   A(27,26,48)           120.1043         calculate D2E/DX2 analytically  !
 ! A87   A(26,27,28)           120.4213         calculate D2E/DX2 analytically  !
 ! A88   A(26,27,49)           119.5855         calculate D2E/DX2 analytically  !
 ! A89   A(28,27,49)           119.9906         calculate D2E/DX2 analytically  !
 ! A90   A(27,28,29)           119.6            calculate D2E/DX2 analytically  !
 ! A91   A(27,28,50)           120.2167         calculate D2E/DX2 analytically  !
 ! A92   A(29,28,50)           120.1832         calculate D2E/DX2 analytically  !
 ! A93   A(28,29,30)           119.9882         calculate D2E/DX2 analytically  !
 ! A94   A(28,29,51)           120.2116         calculate D2E/DX2 analytically  !
 ! A95   A(30,29,51)           119.7993         calculate D2E/DX2 analytically  !
 ! A96   A(25,30,29)           120.7725         calculate D2E/DX2 analytically  !
 ! A97   A(25,30,52)           119.4286         calculate D2E/DX2 analytically  !
 ! A98   A(29,30,52)           119.7967         calculate D2E/DX2 analytically  !
 ! D1    D(1,2,3,4)             -0.7016         calculate D2E/DX2 analytically  !
 ! D2    D(1,2,3,10)           176.7142         calculate D2E/DX2 analytically  !
 ! D3    D(13,2,3,4)           179.7277         calculate D2E/DX2 analytically  !
 ! D4    D(13,2,3,10)           -2.8566         calculate D2E/DX2 analytically  !
 ! D5    D(1,2,13,11)         -178.3058         calculate D2E/DX2 analytically  !
 ! D6    D(1,2,13,14)          -56.2742         calculate D2E/DX2 analytically  !
 ! D7    D(1,2,13,24)           61.4556         calculate D2E/DX2 analytically  !
 ! D8    D(3,2,13,11)            1.2741         calculate D2E/DX2 analytically  !
 ! D9    D(3,2,13,14)          123.3056         calculate D2E/DX2 analytically  !
 ! D10   D(3,2,13,24)         -118.9645         calculate D2E/DX2 analytically  !
 ! D11   D(2,3,4,5)              7.4102         calculate D2E/DX2 analytically  !
 ! D12   D(2,3,4,9)           -172.3904         calculate D2E/DX2 analytically  !
 ! D13   D(10,3,4,5)          -169.859          calculate D2E/DX2 analytically  !
 ! D14   D(10,3,4,9)            10.3404         calculate D2E/DX2 analytically  !
 ! D15   D(2,3,10,11)            3.4593         calculate D2E/DX2 analytically  !
 ! D16   D(4,3,10,11)         -178.8076         calculate D2E/DX2 analytically  !
 ! D17   D(3,4,5,6)           -179.545          calculate D2E/DX2 analytically  !
 ! D18   D(3,4,5,31)             0.4479         calculate D2E/DX2 analytically  !
 ! D19   D(9,4,5,6)              0.2538         calculate D2E/DX2 analytically  !
 ! D20   D(9,4,5,31)          -179.7534         calculate D2E/DX2 analytically  !
 ! D21   D(3,4,9,8)            179.6569         calculate D2E/DX2 analytically  !
 ! D22   D(3,4,9,35)            -0.5149         calculate D2E/DX2 analytically  !
 ! D23   D(5,4,9,8)             -0.1462         calculate D2E/DX2 analytically  !
 ! D24   D(5,4,9,35)           179.682          calculate D2E/DX2 analytically  !
 ! D25   D(4,5,6,7)             -0.175          calculate D2E/DX2 analytically  !
 ! D26   D(4,5,6,32)          -179.9388         calculate D2E/DX2 analytically  !
 ! D27   D(31,5,6,7)           179.8322         calculate D2E/DX2 analytically  !
 ! D28   D(31,5,6,32)            0.0684         calculate D2E/DX2 analytically  !
 ! D29   D(5,6,7,8)             -0.013          calculate D2E/DX2 analytically  !
 ! D30   D(5,6,7,33)          -179.8982         calculate D2E/DX2 analytically  !
 ! D31   D(32,6,7,8)           179.748          calculate D2E/DX2 analytically  !
 ! D32   D(32,6,7,33)           -0.1371         calculate D2E/DX2 analytically  !
 ! D33   D(6,7,8,9)              0.1236         calculate D2E/DX2 analytically  !
 ! D34   D(6,7,8,34)          -179.9224         calculate D2E/DX2 analytically  !
 ! D35   D(33,7,8,9)          -179.9913         calculate D2E/DX2 analytically  !
 ! D36   D(33,7,8,34)           -0.0372         calculate D2E/DX2 analytically  !
 ! D37   D(7,8,9,4)             -0.0439         calculate D2E/DX2 analytically  !
 ! D38   D(7,8,9,35)          -179.8694         calculate D2E/DX2 analytically  !
 ! D39   D(34,8,9,4)          -179.9984         calculate D2E/DX2 analytically  !
 ! D40   D(34,8,9,35)            0.176          calculate D2E/DX2 analytically  !
 ! D41   D(3,10,11,12)        -173.9627         calculate D2E/DX2 analytically  !
 ! D42   D(3,10,11,13)          -2.5182         calculate D2E/DX2 analytically  !
 ! D43   D(10,11,12,36)        138.4884         calculate D2E/DX2 analytically  !
 ! D44   D(10,11,12,37)         18.2297         calculate D2E/DX2 analytically  !
 ! D45   D(10,11,12,38)       -102.6255         calculate D2E/DX2 analytically  !
 ! D46   D(13,11,12,36)        -31.9227         calculate D2E/DX2 analytically  !
 ! D47   D(13,11,12,37)       -152.1814         calculate D2E/DX2 analytically  !
 ! D48   D(13,11,12,38)         86.9634         calculate D2E/DX2 analytically  !
 ! D49   D(10,11,13,2)           0.8002         calculate D2E/DX2 analytically  !
 ! D50   D(10,11,13,14)       -120.7497         calculate D2E/DX2 analytically  !
 ! D51   D(10,11,13,24)        114.6842         calculate D2E/DX2 analytically  !
 ! D52   D(12,11,13,2)         171.8485         calculate D2E/DX2 analytically  !
 ! D53   D(12,11,13,14)         50.2986         calculate D2E/DX2 analytically  !
 ! D54   D(12,11,13,24)        -74.2676         calculate D2E/DX2 analytically  !
 ! D55   D(2,13,24,15)        -101.0812         calculate D2E/DX2 analytically  !
 ! D56   D(2,13,24,25)         139.1311         calculate D2E/DX2 analytically  !
 ! D57   D(2,13,24,47)          13.7762         calculate D2E/DX2 analytically  !
 ! D58   D(11,13,24,15)        150.8915         calculate D2E/DX2 analytically  !
 ! D59   D(11,13,24,25)         31.1039         calculate D2E/DX2 analytically  !
 ! D60   D(11,13,24,47)        -94.251          calculate D2E/DX2 analytically  !
 ! D61   D(14,13,24,15)         21.8546         calculate D2E/DX2 analytically  !
 ! D62   D(14,13,24,25)        -97.9331         calculate D2E/DX2 analytically  !
 ! D63   D(14,13,24,47)        136.712          calculate D2E/DX2 analytically  !
 ! D64   D(23,15,16,17)        168.8254         calculate D2E/DX2 analytically  !
 ! D65   D(23,15,16,18)        -74.0359         calculate D2E/DX2 analytically  !
 ! D66   D(23,15,16,22)         49.7558         calculate D2E/DX2 analytically  !
 ! D67   D(24,15,16,17)        -21.8555         calculate D2E/DX2 analytically  !
 ! D68   D(24,15,16,18)         95.2833         calculate D2E/DX2 analytically  !
 ! D69   D(24,15,16,22)       -140.9251         calculate D2E/DX2 analytically  !
 ! D70   D(16,15,24,13)         66.8625         calculate D2E/DX2 analytically  !
 ! D71   D(16,15,24,25)       -172.3494         calculate D2E/DX2 analytically  !
 ! D72   D(16,15,24,47)        -51.5014         calculate D2E/DX2 analytically  !
 ! D73   D(23,15,24,13)       -125.3248         calculate D2E/DX2 analytically  !
 ! D74   D(23,15,24,25)         -4.5367         calculate D2E/DX2 analytically  !
 ! D75   D(23,15,24,47)        116.3113         calculate D2E/DX2 analytically  !
 ! D76   D(15,16,18,19)        178.8936         calculate D2E/DX2 analytically  !
 ! D77   D(15,16,18,39)         58.5509         calculate D2E/DX2 analytically  !
 ! D78   D(15,16,18,40)        -59.9258         calculate D2E/DX2 analytically  !
 ! D79   D(17,16,18,19)        -63.4594         calculate D2E/DX2 analytically  !
 ! D80   D(17,16,18,39)        176.1979         calculate D2E/DX2 analytically  !
 ! D81   D(17,16,18,40)         57.7212         calculate D2E/DX2 analytically  !
 ! D82   D(22,16,18,19)         54.5213         calculate D2E/DX2 analytically  !
 ! D83   D(22,16,18,39)        -65.8214         calculate D2E/DX2 analytically  !
 ! D84   D(22,16,18,40)        175.7019         calculate D2E/DX2 analytically  !
 ! D85   D(15,16,22,21)       -177.8105         calculate D2E/DX2 analytically  !
 ! D86   D(15,16,22,45)        -57.3091         calculate D2E/DX2 analytically  !
 ! D87   D(15,16,22,46)         60.9344         calculate D2E/DX2 analytically  !
 ! D88   D(17,16,22,21)         63.0556         calculate D2E/DX2 analytically  !
 ! D89   D(17,16,22,45)       -176.443          calculate D2E/DX2 analytically  !
 ! D90   D(17,16,22,46)        -58.1996         calculate D2E/DX2 analytically  !
 ! D91   D(18,16,22,21)        -54.4928         calculate D2E/DX2 analytically  !
 ! D92   D(18,16,22,45)         66.0086         calculate D2E/DX2 analytically  !
 ! D93   D(18,16,22,46)       -175.748          calculate D2E/DX2 analytically  !
 ! D94   D(16,18,19,20)        -57.0594         calculate D2E/DX2 analytically  !
 ! D95   D(16,18,19,41)       -176.1452         calculate D2E/DX2 analytically  !
 ! D96   D(16,18,19,42)         65.6081         calculate D2E/DX2 analytically  !
 ! D97   D(39,18,19,20)         60.9768         calculate D2E/DX2 analytically  !
 ! D98   D(39,18,19,41)        -58.109          calculate D2E/DX2 analytically  !
 ! D99   D(39,18,19,42)       -176.3557         calculate D2E/DX2 analytically  !
 ! D100  D(40,18,19,20)       -176.4643         calculate D2E/DX2 analytically  !
 ! D101  D(40,18,19,41)         64.4499         calculate D2E/DX2 analytically  !
 ! D102  D(40,18,19,42)        -53.7968         calculate D2E/DX2 analytically  !
 ! D103  D(18,19,20,21)         60.8715         calculate D2E/DX2 analytically  !
 ! D104  D(41,19,20,21)       -179.4635         calculate D2E/DX2 analytically  !
 ! D105  D(42,19,20,21)        -61.2153         calculate D2E/DX2 analytically  !
 ! D106  D(19,20,21,22)        -61.0809         calculate D2E/DX2 analytically  !
 ! D107  D(19,20,21,43)        179.1064         calculate D2E/DX2 analytically  !
 ! D108  D(19,20,21,44)         61.3125         calculate D2E/DX2 analytically  !
 ! D109  D(20,21,22,16)         57.1554         calculate D2E/DX2 analytically  !
 ! D110  D(20,21,22,45)        -60.8537         calculate D2E/DX2 analytically  !
 ! D111  D(20,21,22,46)        174.1751         calculate D2E/DX2 analytically  !
 ! D112  D(43,21,22,16)        176.1845         calculate D2E/DX2 analytically  !
 ! D113  D(43,21,22,45)         58.1754         calculate D2E/DX2 analytically  !
 ! D114  D(43,21,22,46)        -66.7958         calculate D2E/DX2 analytically  !
 ! D115  D(44,21,22,16)        -65.4441         calculate D2E/DX2 analytically  !
 ! D116  D(44,21,22,45)        176.5468         calculate D2E/DX2 analytically  !
 ! D117  D(44,21,22,46)         51.5756         calculate D2E/DX2 analytically  !
 ! D118  D(13,24,25,26)         69.8374         calculate D2E/DX2 analytically  !
 ! D119  D(13,24,25,30)       -105.5098         calculate D2E/DX2 analytically  !
 ! D120  D(15,24,25,26)        -41.8591         calculate D2E/DX2 analytically  !
 ! D121  D(15,24,25,30)        142.7937         calculate D2E/DX2 analytically  !
 ! D122  D(47,24,25,26)       -162.5545         calculate D2E/DX2 analytically  !
 ! D123  D(47,24,25,30)         22.0983         calculate D2E/DX2 analytically  !
 ! D124  D(24,25,26,27)       -175.8089         calculate D2E/DX2 analytically  !
 ! D125  D(24,25,26,48)          2.9589         calculate D2E/DX2 analytically  !
 ! D126  D(30,25,26,27)         -0.4459         calculate D2E/DX2 analytically  !
 ! D127  D(30,25,26,48)        178.3218         calculate D2E/DX2 analytically  !
 ! D128  D(24,25,30,29)        175.2743         calculate D2E/DX2 analytically  !
 ! D129  D(24,25,30,52)         -4.18           calculate D2E/DX2 analytically  !
 ! D130  D(26,25,30,29)         -0.2062         calculate D2E/DX2 analytically  !
 ! D131  D(26,25,30,52)       -179.6605         calculate D2E/DX2 analytically  !
 ! D132  D(25,26,27,28)          0.6886         calculate D2E/DX2 analytically  !
 ! D133  D(25,26,27,49)       -179.9061         calculate D2E/DX2 analytically  !
 ! D134  D(48,26,27,28)       -178.0724         calculate D2E/DX2 analytically  !
 ! D135  D(48,26,27,49)          1.333          calculate D2E/DX2 analytically  !
 ! D136  D(26,27,28,29)         -0.2724         calculate D2E/DX2 analytically  !
 ! D137  D(26,27,28,50)        179.7694         calculate D2E/DX2 analytically  !
 ! D138  D(49,27,28,29)       -179.6754         calculate D2E/DX2 analytically  !
 ! D139  D(49,27,28,50)          0.3665         calculate D2E/DX2 analytically  !
 ! D140  D(27,28,29,30)         -0.3777         calculate D2E/DX2 analytically  !
 ! D141  D(27,28,29,51)        179.9744         calculate D2E/DX2 analytically  !
 ! D142  D(50,28,29,30)        179.5804         calculate D2E/DX2 analytically  !
 ! D143  D(50,28,29,51)         -0.0675         calculate D2E/DX2 analytically  !
 ! D144  D(28,29,30,25)          0.6197         calculate D2E/DX2 analytically  !
 ! D145  D(28,29,30,52)       -179.928          calculate D2E/DX2 analytically  !
 ! D146  D(51,29,30,25)       -179.731          calculate D2E/DX2 analytically  !
 ! D147  D(51,29,30,52)         -0.2786         calculate D2E/DX2 analytically  !
 --------------------------------------------------------------------------------
 Trust Radius=3.00D-01 FncErr=1.00D-07 GrdErr=1.00D-06 EigMax=2.50D+02 EigMin=1.00D-04
 Number of steps in this run=    310 maximum allowed number of steps=    312.
 Search for a saddle point of order  1.
 GradGradGradGradGradGradGradGradGradGradGradGradGradGradGradGradGradGrad

 Leave Link  103 at Tue Sep 26 15:16:31 2023, MaxMem=  2147483648 cpu:               0.2 elap:               0.0
 (Enter /gpfs1/apps/software/Gaussian16/AVX2/g16/l202.exe)
 Stoichiometry    C22H23N3O4
 Framework group  C1[X(C22H23N3O4)]
 Deg. of freedom   150
 Full point group                 C1      NOp   1
 Largest Abelian subgroup         C1      NOp   1
 Largest concise Abelian subgroup C1      NOp   1
                         Standard orientation:                         
 ---------------------------------------------------------------------
 Center     Atomic      Atomic             Coordinates (Angstroms)
 Number     Number       Type             X           Y           Z
 ---------------------------------------------------------------------
      1          8           0        1.143099    1.439465   -0.118091
      2          6           0        1.044140    0.276664    0.270547
      3          7           0        2.038442   -0.635207    0.367143
      4          6           0        3.409362   -0.510179    0.046943
      5          6           0        3.961858    0.729606   -0.306283
      6          6           0        5.316484    0.809626   -0.624506
      7          6           0        6.130060   -0.322004   -0.593474
      8          6           0        5.572932   -1.550048   -0.237245
      9          6           0        4.221600   -1.652163    0.081997
     10          7           0        1.586165   -1.844191    0.918770
     11          6           0        0.324943   -1.769904    1.113682
     12          6           0       -0.407540   -2.858821    1.814132
     13          6           0       -0.269582   -0.398855    0.752120
     14          8           0       -0.882110    0.237368    1.759503
     15          6           0       -2.154090    0.798065   -0.034675
     16          7           0       -1.434234    2.126122   -0.052677
     17          1           0       -0.391840    1.939716    0.007708
     18          6           0       -1.688974    2.829845   -1.346471
     19          6           0       -0.976512    4.172671   -1.326050
     20          8           0       -1.390599    4.950434   -0.234666
     21          6           0       -1.100682    4.314426    0.987192
     22          6           0       -1.820271    2.983892    1.104528
     23          8           0       -3.333758    0.834520    0.110704
     24          6           0       -1.289413   -0.387518   -0.462703
     25          6           0       -2.081324   -1.660010   -0.610117
     26          6           0       -3.069930   -2.024490    0.314853
     27          6           0       -3.724455   -3.249056    0.199271
     28          6           0       -3.393919   -4.132894   -0.829488
     29          6           0       -2.405541   -3.781478   -1.748672
     30          6           0       -1.759497   -2.549569   -1.641140
     31          1           0        3.336516    1.617602   -0.330703
     32          1           0        5.737957    1.778858   -0.897245
     33          1           0        7.189483   -0.247559   -0.842841
     34          1           0        6.195126   -2.446299   -0.206372
     35          1           0        3.785098   -2.608473    0.362207
     36          1           0       -1.132994   -2.399280    2.499811
     37          1           0        0.298888   -3.483372    2.375907
     38          1           0       -0.958859   -3.493577    1.105449
     39          1           0       -2.775442    2.960934   -1.439843
     40          1           0       -1.320014    2.195601   -2.164239
     41          1           0       -1.218343    4.720459   -2.245840
     42          1           0        0.118488    4.012287   -1.297667
     43          1           0       -1.431920    4.975887    1.797573
     44          1           0       -0.008933    4.163544    1.091879
     45          1           0       -2.908997    3.114843    1.064960
     46          1           0       -1.529798    2.425110    2.001760
     47          1           0       -0.813504   -0.147408   -1.429311
     48          1           0       -3.309800   -1.352288    1.137786
     49          1           0       -4.493287   -3.519845    0.925291
     50          1           0       -3.906167   -5.092925   -0.914668
     51          1           0       -2.138900   -4.465095   -2.556686
     52          1           0       -0.986315   -2.276905   -2.363805
 ---------------------------------------------------------------------
 Rotational constants (GHZ):           0.1901474           0.1479784           0.0939909
 Leave Link  202 at Tue Sep 26 15:16:32 2023, MaxMem=  2147483648 cpu:               0.0 elap:               0.0
 (Enter /gpfs1/apps/software/Gaussian16/AVX2/g16/l301.exe)
 General basis read from cards:  (5D, 7F)
 Centers:       2      4      5      6      7      8      9     11     12     13
 Centers:      15     18     19     21     22     24     25     26     27     28
 Centers:      29     30     17     31     32     33     34     35     36     37
 Centers:      38     39     40     41     42     43     44     45     46     47
 Centers:      48     49     50     51     52      3     10     16      1     14
 Centers:      20     23
 def2SVP
 ****
 Ernie: Thresh=  0.10000D-02 Tol=  0.10000D-05 Strict=F.
 There are   550 symmetry adapted cartesian basis functions of A   symmetry.
 There are   521 symmetry adapted basis functions of A   symmetry.
   521 basis functions,   886 primitive gaussians,   550 cartesian basis functions
   104 alpha electrons      104 beta electrons
       nuclear repulsion energy      2863.9553941305 Hartrees.
 IExCor= 4336 DFT=T Ex+Corr=M062X ExCW=0 ScaHFX=  0.540000
 ScaDFX=  1.000000  1.000000  1.000000  1.000000 ScalE2=  1.000000  1.000000
 IRadAn=      5 IRanWt=     -1 IRanGd=            0 ICorTp=0 IEmpDi=  4
 NAtoms=   52 NActive=   52 NUniq=   52 SFac= 1.00D+00 NAtFMM=   60 NAOKFM=F Big=F
 Integral buffers will be    131072 words long.
 Raffenetti 2 integral format.
 Two-electron integral symmetry is turned on.
 Force inversion solution in PCM.
 ------------------------------------------------------------------------------
 Polarizable Continuum Model (PCM)
 =================================
 Model                : PCM.
 Atomic radii         : SMD-Coulomb.
 Polarization charges : Total charges.
 Charge compensation  : None.
 Solution method      : Matrix inversion.
 Cavity type          : VdW (van der Waals Surface) (Alpha=1.000).
 Cavity algorithm     : GePol (No added spheres)
                        Default sphere list used, NSphG=   52.
                        Lebedev-Laikov grids with approx.  5.0 points / Ang**2.
                        Smoothing algorithm: York/Karplus (Gamma=1.0000).
                        Polarization charges: spherical gaussians, with
                                              point-specific exponents (IZeta= 3).
                        Self-potential: point-specific (ISelfS= 7).
                        Self-field    : sphere-specific E.n sum rule (ISelfD= 2).
 1st derivatives      : Analytical E(r).r(x)/FMM algorithm (CHGder, D1EAlg=3).
                        Cavity 1st derivative terms included.
 2nd derivatives      : Analytical E(r).r(xy)/FMM algorithm (CHGder, D2EAlg=3).
                        Cavity 2nd derivative terms included.
 Solvent              : Dichloromethane, Eps=   8.930000 Eps(inf)=   2.028346
 ------------------------------------------------------------------------------
 GePol: Number of generator spheres                  =      52
 GePol: Total number of spheres                      =      52
 GePol: Number of exposed spheres                    =      51 ( 98.08%)
 GePol: Number of points                             =    3482
 GePol: Average weight of points                     =       0.12
 GePol: Minimum weight of points                     =   0.30D-11
 GePol: Maximum weight of points                     =    0.20498
 GePol: Number of points with low weight             =     214
 GePol: Fraction of low-weight points (<1% of avg)   =       6.15%
 GePol: Cavity surface area                          =    403.266 Ang**2
 GePol: Cavity volume                                =    423.808 Ang**3
 ------------------------------------------------------------------------------
 Atomic radii for non-electrostatic terms: SMD-CDS.
 ------------------------------------------------------------------------------
 PCM non-electrostatic energy =        -0.0111350822 Hartrees.
 Nuclear repulsion after PCM non-electrostatic terms =     2863.9442590483 Hartrees.
 Leave Link  301 at Tue Sep 26 15:16:32 2023, MaxMem=  2147483648 cpu:               1.5 elap:               0.1
 (Enter /gpfs1/apps/software/Gaussian16/AVX2/g16/l302.exe)
 NPDir=0 NMtPBC=     1 NCelOv=     1 NCel=       1 NClECP=     1 NCelD=      1
         NCelK=      1 NCelE2=     1 NClLst=     1 CellRange=     0.0.
 One-electron integrals computed using PRISM.
 One-electron integral symmetry used in STVInt
 NBasis=   521 RedAO= T EigKep=  2.71D-04  NBF=   521
 NBsUse=   521 1.00D-06 EigRej= -1.00D+00 NBFU=   521
 Precomputing XC quadrature grid using
 IXCGrd= 4 IRadAn=           5 IRanWt=          -1 IRanGd=           0 AccXCQ= 0.00D+00.
 Generated NRdTot=       0 NPtTot=           0 NUsed=           0 NTot=          32
 NSgBfM=   543   542   542   543   543 MxSgAt=    52 MxSgA2=    52.
 Leave Link  302 at Tue Sep 26 15:16:32 2023, MaxMem=  2147483648 cpu:              11.7 elap:               0.7
 (Enter /gpfs1/apps/software/Gaussian16/AVX2/g16/l303.exe)
 DipDrv:  MaxL=1.
 Leave Link  303 at Tue Sep 26 15:16:32 2023, MaxMem=  2147483648 cpu:               1.5 elap:               0.1
 (Enter /gpfs1/apps/software/Gaussian16/AVX2/g16/l401.exe)
 ExpMin= 1.22D-01 ExpMax= 2.27D+03 ExpMxC= 3.41D+02 IAcc=3 IRadAn=         5 AccDes= 0.00D+00
 Harris functional with IExCor= 1009 and IRadAn=       5 diagonalized for initial guess.
 HarFok:  IExCor= 1009 AccDes= 0.00D+00 IRadAn=         5 IDoV= 1 UseB2=F ITyADJ=14
 ICtDFT=  3500011 ScaDFX=  1.000000  1.000000  1.000000  1.000000
 FoFCou: FMM=F IPFlag=           0 FMFlag=      100000 FMFlg1=           0
         NFxFlg=           0 DoJE=T BraDBF=F KetDBF=T FulRan=T
         wScrn=  0.000000 ICntrl=       500 IOpCl=  0 I1Cent=   200000004 NGrid=           0
         NMat0=    1 NMatS0=      1 NMatT0=    0 NMatD0=    1 NMtDS0=    0 NMtDT0=    0
 Petite list used in FoFCou.
 Harris En= -1315.11384289784    
 JPrj=0 DoOrth=F DoCkMO=F.
 Leave Link  401 at Tue Sep 26 15:16:35 2023, MaxMem=  2147483648 cpu:              38.0 elap:               2.4
 (Enter /gpfs1/apps/software/Gaussian16/AVX2/g16/l502.exe)
 Integral symmetry usage will be decided dynamically.
 Closed shell SCF:
 Using DIIS extrapolation, IDIIS=  1040.
 NGot=  2147483648 LenX=  2146862810 LenY=  2146559760
 Requested convergence on RMS density matrix=1.00D-08 within 128 cycles.
 Requested convergence on MAX density matrix=1.00D-06.
 Requested convergence on             energy=1.00D-06.
 No special actions if energy rises.
 Fock matrices will be formed incrementally for  20 cycles.

 Cycle   1  Pass 1  IDiag  1:
 FoFJK:  IHMeth= 1 ICntrl=       0 DoSepK=F KAlg= 0 I1Cent=           0 FoldK=F
 IRaf= 780000000 NMat=       1 IRICut=       1 DoRegI=T DoRafI=F ISym2E= 0 IDoP0=0 IntGTp=1.
 FoFCou: FMM=F IPFlag=           0 FMFlag=      100000 FMFlg1=           0
         NFxFlg=           0 DoJE=F BraDBF=F KetDBF=F FulRan=T
         wScrn=  0.000000 ICntrl=         0 IOpCl=  0 I1Cent=           0 NGrid=           0
         NMat0=    1 NMatS0=      1 NMatT0=    0 NMatD0=    1 NMtDS0=    0 NMtDT0=    0
 Symmetry not used in FoFCou.
 Inv3:  Mode=1 IEnd=    36372972.
 Iteration    1 A*A^-1 deviation from unit magnitude is 2.78D-15 for    372.
 Iteration    1 A*A^-1 deviation from orthogonality  is 2.22D-15 for   2653    222.
 Iteration    1 A^-1*A deviation from unit magnitude is 3.11D-15 for   3027.
 Iteration    1 A^-1*A deviation from orthogonality  is 1.71D-15 for   1388    635.
 E= -1315.18836406087    
 DIIS: error= 2.78D-02 at cycle   1 NSaved=   1.
 NSaved= 1 IEnMin= 1 EnMin= -1315.18836406087     IErMin= 1 ErrMin= 2.78D-02
 ErrMax= 2.78D-02  0.00D+00 EMaxC= 1.00D-01 BMatC= 6.67D-01 BMatP= 6.67D-01
 IDIUse=3 WtCom= 7.22D-01 WtEn= 2.78D-01
 Coeff-Com:  0.100D+01
 Coeff-En:   0.100D+01
 Coeff:      0.100D+01
 Gap=     0.326 Goal=   None    Shift=    0.000
 GapD=    0.326 DampG=1.000 DampE=0.500 DampFc=0.5000 IDamp=-1.
 Damping current iteration by 5.00D-01
 RMSDP=4.77D-03 MaxDP=7.48D-01              OVMax= 2.15D-01

 Cycle   2  Pass 1  IDiag  1:
 RMSU=  2.38D-03    CP:  9.90D-01
 E= -1315.46025595464     Delta-E=       -0.271891893771 Rises=F Damp=T
 DIIS: error= 6.05D-03 at cycle   2 NSaved=   2.
 NSaved= 2 IEnMin= 2 EnMin= -1315.46025595464     IErMin= 2 ErrMin= 6.05D-03
 ErrMax= 6.05D-03  0.00D+00 EMaxC= 1.00D-01 BMatC= 6.66D-02 BMatP= 6.67D-01
 IDIUse=3 WtCom= 9.40D-01 WtEn= 6.05D-02
 Coeff-Com:  0.391D-01 0.961D+00
 Coeff-En:   0.392D-01 0.961D+00
 Coeff:      0.391D-01 0.961D+00
 Gap=     0.286 Goal=   None    Shift=    0.000
 RMSDP=1.34D-03 MaxDP=2.06D-01 DE=-2.72D-01 OVMax= 1.37D-01

 Cycle   3  Pass 1  IDiag  1:
 RMSU=  1.24D-03    CP:  9.72D-01  8.17D-01
 E= -1315.76441145998     Delta-E=       -0.304155505345 Rises=F Damp=F
 DIIS: error= 6.07D-03 at cycle   3 NSaved=   3.
 NSaved= 3 IEnMin= 3 EnMin= -1315.76441145998     IErMin= 2 ErrMin= 6.05D-03
 ErrMax= 6.07D-03  0.00D+00 EMaxC= 1.00D-01 BMatC= 4.03D-02 BMatP= 6.66D-02
 IDIUse=3 WtCom= 9.39D-01 WtEn= 6.07D-02
 Coeff-Com: -0.720D-01 0.447D+00 0.625D+00
 Coeff-En:   0.000D+00 0.000D+00 0.100D+01
 Coeff:     -0.676D-01 0.420D+00 0.648D+00
 Gap=     0.265 Goal=   None    Shift=    0.000
 RMSDP=5.96D-04 MaxDP=6.81D-02 DE=-3.04D-01 OVMax= 3.77D-02

 Cycle   4  Pass 1  IDiag  1:
 RMSU=  3.48D-04    CP:  9.78D-01  9.57D-01  7.28D-01
 E= -1315.79543141955     Delta-E=       -0.031019959566 Rises=F Damp=F
 DIIS: error= 1.70D-03 at cycle   4 NSaved=   4.
 NSaved= 4 IEnMin= 4 EnMin= -1315.79543141955     IErMin= 4 ErrMin= 1.70D-03
 ErrMax= 1.70D-03  0.00D+00 EMaxC= 1.00D-01 BMatC= 3.35D-03 BMatP= 4.03D-02
 IDIUse=3 WtCom= 9.83D-01 WtEn= 1.70D-02
 Coeff-Com: -0.241D-01 0.701D-01 0.265D+00 0.689D+00
 Coeff-En:   0.000D+00 0.000D+00 0.000D+00 0.100D+01
 Coeff:     -0.237D-01 0.689D-01 0.261D+00 0.694D+00
 Gap=     0.256 Goal=   None    Shift=    0.000
 RMSDP=1.52D-04 MaxDP=1.26D-02 DE=-3.10D-02 OVMax= 9.28D-03

 Cycle   5  Pass 1  IDiag  1:
 RMSU=  9.25D-05    CP:  9.77D-01  9.42D-01  7.85D-01  7.52D-01
 E= -1315.79827088101     Delta-E=       -0.002839461464 Rises=F Damp=F
 DIIS: error= 5.78D-04 at cycle   5 NSaved=   5.
 NSaved= 5 IEnMin= 5 EnMin= -1315.79827088101     IErMin= 5 ErrMin= 5.78D-04
 ErrMax= 5.78D-04  0.00D+00 EMaxC= 1.00D-01 BMatC= 1.70D-04 BMatP= 3.35D-03
 IDIUse=3 WtCom= 9.94D-01 WtEn= 5.78D-03
 Coeff-Com: -0.689D-02 0.898D-02 0.774D-01 0.283D+00 0.638D+00
 Coeff-En:   0.000D+00 0.000D+00 0.000D+00 0.000D+00 0.100D+01
 Coeff:     -0.685D-02 0.892D-02 0.770D-01 0.281D+00 0.640D+00
 Gap=     0.257 Goal=   None    Shift=    0.000
 RMSDP=3.98D-05 MaxDP=3.22D-03 DE=-2.84D-03 OVMax= 3.53D-03

 Cycle   6  Pass 1  IDiag  1:
 RMSU=  2.99D-05    CP:  9.77D-01  9.39D-01  7.93D-01  7.91D-01  7.90D-01
 E= -1315.79840276048     Delta-E=       -0.000131879466 Rises=F Damp=F
 DIIS: error= 1.89D-04 at cycle   6 NSaved=   6.
 NSaved= 6 IEnMin= 6 EnMin= -1315.79840276048     IErMin= 6 ErrMin= 1.89D-04
 ErrMax= 1.89D-04  0.00D+00 EMaxC= 1.00D-01 BMatC= 2.22D-05 BMatP= 1.70D-04
 IDIUse=3 WtCom= 9.98D-01 WtEn= 1.89D-03
 Coeff-Com: -0.114D-02-0.192D-02 0.125D-01 0.698D-01 0.301D+00 0.620D+00
 Coeff-En:   0.000D+00 0.000D+00 0.000D+00 0.000D+00 0.000D+00 0.100D+01
 Coeff:     -0.114D-02-0.191D-02 0.124D-01 0.697D-01 0.301D+00 0.620D+00
 Gap=     0.257 Goal=   None    Shift=    0.000
 RMSDP=1.43D-05 MaxDP=1.64D-03 DE=-1.32D-04 OVMax= 7.74D-04

 Cycle   7  Pass 1  IDiag  1:
 RMSU=  1.20D-05    CP:  9.77D-01  9.41D-01  7.92D-01  7.96D-01  8.42D-01
                    CP:  8.84D-01
 E= -1315.79842090010     Delta-E=       -0.000018139624 Rises=F Damp=F
 DIIS: error= 5.11D-05 at cycle   7 NSaved=   7.
 NSaved= 7 IEnMin= 7 EnMin= -1315.79842090010     IErMin= 7 ErrMin= 5.11D-05
 ErrMax= 5.11D-05  0.00D+00 EMaxC= 1.00D-01 BMatC= 2.01D-06 BMatP= 2.22D-05
 IDIUse=1 WtCom= 1.00D+00 WtEn= 0.00D+00
 Coeff-Com:  0.504D-03-0.182D-02-0.592D-02-0.130D-01 0.243D-01 0.237D+00
 Coeff-Com:  0.759D+00
 Coeff:      0.504D-03-0.182D-02-0.592D-02-0.130D-01 0.243D-01 0.237D+00
 Coeff:      0.759D+00
 Gap=     0.257 Goal=   None    Shift=    0.000
 RMSDP=6.02D-06 MaxDP=7.39D-04 DE=-1.81D-05 OVMax= 5.81D-04

 Cycle   8  Pass 1  IDiag  1:
 RMSU=  4.14D-06    CP:  9.77D-01  9.41D-01  7.93D-01  7.98D-01  8.69D-01
                    CP:  9.70D-01  9.00D-01
 E= -1315.79842317049     Delta-E=       -0.000002270393 Rises=F Damp=F
 DIIS: error= 1.60D-05 at cycle   8 NSaved=   8.
 NSaved= 8 IEnMin= 8 EnMin= -1315.79842317049     IErMin= 8 ErrMin= 1.60D-05
 ErrMax= 1.60D-05  0.00D+00 EMaxC= 1.00D-01 BMatC= 2.90D-07 BMatP= 2.01D-06
 IDIUse=1 WtCom= 1.00D+00 WtEn= 0.00D+00
 Coeff-Com:  0.403D-03-0.580D-03-0.428D-02-0.158D-01-0.343D-01 0.371D-02
 Coeff-Com:  0.308D+00 0.743D+00
 Coeff:      0.403D-03-0.580D-03-0.428D-02-0.158D-01-0.343D-01 0.371D-02
 Coeff:      0.308D+00 0.743D+00
 Gap=     0.257 Goal=   None    Shift=    0.000
 RMSDP=2.23D-06 MaxDP=1.39D-04 DE=-2.27D-06 OVMax= 2.71D-04

 Cycle   9  Pass 1  IDiag  1:
 RMSU=  1.53D-06    CP:  9.77D-01  9.40D-01  7.93D-01  7.99D-01  8.73D-01
                    CP:  1.01D+00  9.92D-01  1.03D+00
 E= -1315.79842353812     Delta-E=       -0.000000367625 Rises=F Damp=F
 DIIS: error= 6.10D-06 at cycle   9 NSaved=   9.
 NSaved= 9 IEnMin= 9 EnMin= -1315.79842353812     IErMin= 9 ErrMin= 6.10D-06
 ErrMax= 6.10D-06  0.00D+00 EMaxC= 1.00D-01 BMatC= 3.74D-08 BMatP= 2.90D-07
 IDIUse=1 WtCom= 1.00D+00 WtEn= 0.00D+00
 Coeff-Com:  0.147D-03-0.127D-03-0.141D-02-0.597D-02-0.171D-01-0.179D-01
 Coeff-Com:  0.768D-01 0.332D+00 0.634D+00
 Coeff:      0.147D-03-0.127D-03-0.141D-02-0.597D-02-0.171D-01-0.179D-01
 Coeff:      0.768D-01 0.332D+00 0.634D+00
 Gap=     0.257 Goal=   None    Shift=    0.000
 RMSDP=8.86D-07 MaxDP=8.89D-05 DE=-3.68D-07 OVMax= 9.28D-05

 Cycle  10  Pass 1  IDiag  1:
 RMSU=  6.69D-07    CP:  9.77D-01  9.40D-01  7.93D-01  7.99D-01  8.74D-01
                    CP:  1.01D+00  1.01D+00  1.13D+00  1.08D+00
 E= -1315.79842358447     Delta-E=       -0.000000046346 Rises=F Damp=F
 DIIS: error= 2.28D-06 at cycle  10 NSaved=  10.
 NSaved=10 IEnMin=10 EnMin= -1315.79842358447     IErMin=10 ErrMin= 2.28D-06
 ErrMax= 2.28D-06  0.00D+00 EMaxC= 1.00D-01 BMatC= 4.39D-09 BMatP= 3.74D-08
 IDIUse=1 WtCom= 1.00D+00 WtEn= 0.00D+00
 Coeff-Com: -0.364D-04 0.849D-04 0.442D-03 0.130D-02 0.152D-02-0.708D-02
 Coeff-Com: -0.385D-01-0.444D-01 0.213D+00 0.874D+00
 Coeff:     -0.364D-04 0.849D-04 0.442D-03 0.130D-02 0.152D-02-0.708D-02
 Coeff:     -0.385D-01-0.444D-01 0.213D+00 0.874D+00
 Gap=     0.257 Goal=   None    Shift=    0.000
 RMSDP=5.32D-07 MaxDP=4.94D-05 DE=-4.63D-08 OVMax= 8.31D-05

 Cycle  11  Pass 1  IDiag  1:
 RMSU=  2.35D-07    CP:  9.77D-01  9.40D-01  7.93D-01  7.99D-01  8.74D-01
                    CP:  1.02D+00  1.02D+00  1.20D+00  1.29D+00  1.08D+00
 E= -1315.79842359502     Delta-E=       -0.000000010552 Rises=F Damp=F
 DIIS: error= 7.18D-07 at cycle  11 NSaved=  11.
 NSaved=11 IEnMin=11 EnMin= -1315.79842359502     IErMin=11 ErrMin= 7.18D-07
 ErrMax= 7.18D-07  0.00D+00 EMaxC= 1.00D-01 BMatC= 1.17D-09 BMatP= 4.39D-09
 IDIUse=1 WtCom= 1.00D+00 WtEn= 0.00D+00
 Coeff-Com: -0.350D-04 0.539D-04 0.373D-03 0.135D-02 0.283D-02-0.124D-02
 Coeff-Com: -0.288D-01-0.637D-01 0.786D-02 0.412D+00 0.669D+00
 Coeff:     -0.350D-04 0.539D-04 0.373D-03 0.135D-02 0.283D-02-0.124D-02
 Coeff:     -0.288D-01-0.637D-01 0.786D-02 0.412D+00 0.669D+00
 Gap=     0.257 Goal=   None    Shift=    0.000
 RMSDP=2.01D-07 MaxDP=1.49D-05 DE=-1.06D-08 OVMax= 2.71D-05

 Cycle  12  Pass 1  IDiag  1:
 RMSU=  8.94D-08    CP:  9.77D-01  9.40D-01  7.93D-01  7.99D-01  8.75D-01
                    CP:  1.02D+00  1.02D+00  1.22D+00  1.35D+00  1.24D+00
                    CP:  1.06D+00
 E= -1315.79842359680     Delta-E=       -0.000000001785 Rises=F Damp=F
 DIIS: error= 3.21D-07 at cycle  12 NSaved=  12.
 NSaved=12 IEnMin=12 EnMin= -1315.79842359680     IErMin=12 ErrMin= 3.21D-07
 ErrMax= 3.21D-07  0.00D+00 EMaxC= 1.00D-01 BMatC= 1.31D-10 BMatP= 1.17D-09
 IDIUse=1 WtCom= 1.00D+00 WtEn= 0.00D+00
 Coeff-Com: -0.670D-05 0.608D-05 0.468D-04 0.231D-03 0.717D-03 0.954D-03
 Coeff-Com: -0.284D-02-0.128D-01-0.397D-01-0.108D-01 0.249D+00 0.815D+00
 Coeff:     -0.670D-05 0.608D-05 0.468D-04 0.231D-03 0.717D-03 0.954D-03
 Coeff:     -0.284D-02-0.128D-01-0.397D-01-0.108D-01 0.249D+00 0.815D+00
 Gap=     0.257 Goal=   None    Shift=    0.000
 RMSDP=8.86D-08 MaxDP=8.44D-06 DE=-1.79D-09 OVMax= 1.39D-05

 Cycle  13  Pass 1  IDiag  1:
 RMSU=  3.05D-08    CP:  9.77D-01  9.40D-01  7.93D-01  7.99D-01  8.75D-01
                    CP:  1.02D+00  1.02D+00  1.23D+00  1.39D+00  1.29D+00
                    CP:  1.23D+00  1.04D+00
 E= -1315.79842359710     Delta-E=       -0.000000000292 Rises=F Damp=F
 DIIS: error= 1.07D-07 at cycle  13 NSaved=  13.
 NSaved=13 IEnMin=13 EnMin= -1315.79842359710     IErMin=13 ErrMin= 1.07D-07
 ErrMax= 1.07D-07  0.00D+00 EMaxC= 1.00D-01 BMatC= 1.94D-11 BMatP= 1.31D-10
 IDIUse=1 WtCom= 1.00D+00 WtEn= 0.00D+00
 Coeff-Com:  0.147D-05-0.380D-05-0.304D-04-0.806D-04-0.780D-04 0.481D-03
 Coeff-Com:  0.230D-02 0.333D-02-0.162D-01-0.578D-01 0.587D-02 0.306D+00
 Coeff-Com:  0.756D+00
 Coeff:      0.147D-05-0.380D-05-0.304D-04-0.806D-04-0.780D-04 0.481D-03
 Coeff:      0.230D-02 0.333D-02-0.162D-01-0.578D-01 0.587D-02 0.306D+00
 Coeff:      0.756D+00
 Gap=     0.257 Goal=   None    Shift=    0.000
 RMSDP=3.00D-08 MaxDP=2.42D-06 DE=-2.92D-10 OVMax= 4.83D-06

 Cycle  14  Pass 1  IDiag  1:
 RMSU=  1.22D-08    CP:  9.77D-01  9.40D-01  7.93D-01  7.99D-01  8.75D-01
                    CP:  1.02D+00  1.02D+00  1.23D+00  1.39D+00  1.31D+00
                    CP:  1.29D+00  1.15D+00  1.04D+00
 E= -1315.79842359712     Delta-E=       -0.000000000020 Rises=F Damp=F
 DIIS: error= 5.57D-08 at cycle  14 NSaved=  14.
 NSaved=14 IEnMin=14 EnMin= -1315.79842359712     IErMin=14 ErrMin= 5.57D-08
 ErrMax= 5.57D-08  0.00D+00 EMaxC= 1.00D-01 BMatC= 2.54D-12 BMatP= 1.94D-11
 IDIUse=1 WtCom= 1.00D+00 WtEn= 0.00D+00
 Coeff-Com:  0.141D-05-0.188D-05-0.193D-04-0.677D-04-0.144D-03 0.223D-04
 Coeff-Com:  0.132D-02 0.360D-02 0.132D-02-0.191D-01-0.409D-01-0.338D-01
 Coeff-Com:  0.265D+00 0.823D+00
 Coeff:      0.141D-05-0.188D-05-0.193D-04-0.677D-04-0.144D-03 0.223D-04
 Coeff:      0.132D-02 0.360D-02 0.132D-02-0.191D-01-0.409D-01-0.338D-01
 Coeff:      0.265D+00 0.823D+00
 Gap=     0.257 Goal=   None    Shift=    0.000
 RMSDP=1.10D-08 MaxDP=8.01D-07 DE=-2.00D-11 OVMax= 1.71D-06

 Cycle  15  Pass 1  IDiag  1:
 RMSU=  3.80D-09    CP:  9.77D-01  9.40D-01  7.93D-01  7.99D-01  8.75D-01
                    CP:  1.02D+00  1.02D+00  1.23D+00  1.40D+00  1.31D+00
                    CP:  1.31D+00  1.19D+00  1.21D+00  1.05D+00
 E= -1315.79842359711     Delta-E=        0.000000000009 Rises=F Damp=F
 DIIS: error= 1.32D-08 at cycle  15 NSaved=  15.
 NSaved=15 IEnMin=14 EnMin= -1315.79842359712     IErMin=15 ErrMin= 1.32D-08
 ErrMax= 1.32D-08  0.00D+00 EMaxC= 1.00D-01 BMatC= 1.79D-13 BMatP= 2.54D-12
 IDIUse=1 WtCom= 1.00D+00 WtEn= 0.00D+00
 Coeff-Com:  0.274D-06-0.249D-06-0.398D-05-0.151D-04-0.383D-04-0.295D-04
 Coeff-Com:  0.214D-03 0.802D-03 0.140D-02-0.209D-02-0.128D-01-0.315D-01
 Coeff-Com:  0.311D-01 0.252D+00 0.761D+00
 Coeff:      0.274D-06-0.249D-06-0.398D-05-0.151D-04-0.383D-04-0.295D-04
 Coeff:      0.214D-03 0.802D-03 0.140D-02-0.209D-02-0.128D-01-0.315D-01
 Coeff:      0.311D-01 0.252D+00 0.761D+00
 Gap=     0.257 Goal=   None    Shift=    0.000
 RMSDP=2.53D-09 MaxDP=1.35D-07 DE= 8.64D-12 OVMax= 3.35D-07

 Error on total polarization charges =  0.04696
 SCF Done:  E(RM062X) =  -1315.79842360     A.U. after   15 cycles
            NFock= 15  Conv=0.25D-08     -V/T= 2.0099
 KE= 1.302927502614D+03 PE=-8.787889583042D+03 EE= 3.305219397783D+03
 SMD-CDS (non-electrostatic) energy       (kcal/mol) =      -6.99
 (included in total energy above)
 Leave Link  502 at Tue Sep 26 15:20:03 2023, MaxMem=  2147483648 cpu:            3299.9 elap:             207.6
 (Enter /gpfs1/apps/software/Gaussian16/AVX2/g16/l801.exe)
 DoSCS=F DFT=T ScalE2(SS,OS)=  1.000000  1.000000
 Range of M.O.s used for correlation:     1   521
 NBasis=   521 NAE=   104 NBE=   104 NFC=     0 NFV=     0
 NROrb=    521 NOA=   104 NOB=   104 NVA=   417 NVB=   417

 **** Warning!!: The largest alpha MO coefficient is  0.13511667D+02

 Leave Link  801 at Tue Sep 26 15:20:03 2023, MaxMem=  2147483648 cpu:               0.6 elap:               0.0
 (Enter /gpfs1/apps/software/Gaussian16/AVX2/g16/l1101.exe)
 Using compressed storage, NAtomX=    52.
 Will process     53 centers per pass.
 Leave Link 1101 at Tue Sep 26 15:20:05 2023, MaxMem=  2147483648 cpu:              21.5 elap:               1.4
 (Enter /gpfs1/apps/software/Gaussian16/AVX2/g16/l1102.exe)
 Symmetrizing basis deriv contribution to polar:
 IMax=3 JMax=2 DiffMx= 0.00D+00
 Leave Link 1102 at Tue Sep 26 15:20:05 2023, MaxMem=  2147483648 cpu:               1.4 elap:               0.1
 (Enter /gpfs1/apps/software/Gaussian16/AVX2/g16/l1110.exe)
 Forming Gx(P) for the SCF density, NAtomX=    52.
 Integral derivatives from FoFJK, PRISM(SPDF).
 Do as many integral derivatives as possible in FoFJK.
 G2DrvN: MDV=    2147478156.
 G2DrvN: will do    53 centers at a time, making    1 passes.
 Calling FoFCou, ICntrl=  3107 FMM=F I1Cent=   0 AccDes= 0.00D+00.
 FoFJK:  IHMeth= 1 ICntrl=    3107 DoSepK=F KAlg= 0 I1Cent=           0 FoldK=F
 IRaf=         0 NMat=       1 IRICut=       1 DoRegI=T DoRafI=F ISym2E= 0 IDoP0=0 IntGTp=1.
 FoFCou: FMM=F IPFlag=           0 FMFlag=      100000 FMFlg1=           0
         NFxFlg=           0 DoJE=F BraDBF=F KetDBF=F FulRan=T
         wScrn=  0.000000 ICntrl=      3107 IOpCl=  0 I1Cent=           0 NGrid=           0
         NMat0=    1 NMatS0=      1 NMatT0=    0 NMatD0=    1 NMtDS0=    0 NMtDT0=    0
 Symmetry not used in FoFCou.
 NEqPCM:  Using equilibrium solvation (IEInf=0, Eps=   8.9300, EpsInf=   2.0283)
 G2PCM: DoFxE=T DoFxN=T DoGrad=T DoDP/DQ/DG/TGxP=FFFF NFrqRd=   0 IEInf=0 SqF1=F DoCFld=F IF1Alg=4.
 GePol: Maximum number of non-zero 1st derivatives   =     230
 End of G2Drv F.D. properties file   721 does not exist.
 End of G2Drv F.D. properties file   722 does not exist.
 End of G2Drv F.D. properties file   788 does not exist.
 Leave Link 1110 at Tue Sep 26 15:28:01 2023, MaxMem=  2147483648 cpu:            7615.3 elap:             476.0
 (Enter /gpfs1/apps/software/Gaussian16/AVX2/g16/l1002.exe)
 Minotr:  Closed shell wavefunction.
          IDoAtm=11111111111111111111111111111111111111111111111111
          IDoAtm=11
 NEqPCM:  Using equilibrium solvation (IEInf=0, Eps=   8.9300, EpsInf=   2.0283)
          Direct CPHF calculation.
          Differentiating once with respect to nuclear coordinates.
          Requested convergence is 1.0D-08 RMS, and 1.0D-07 maximum.
          Secondary convergence is 1.0D-12 RMS, and 1.0D-12 maximum.
          NewPWx=T KeepS1=F KeepF1=F KeepIn=T MapXYZ=F SortEE=F KeepMc=T.
        15791 words used for storage of precomputed grid.
 Two-electron integrals replicated using symmetry.
          MDV=    2147483648 using IRadAn=       1.
          Solving linear equations simultaneously, MaxMat=     384.
 FoF2E skips out because all densities are zero.
 CalDSu exits because no D1Ps are significant.
 FoFJK:  IHMeth= 1 ICntrl=       0 DoSepK=F KAlg= 0 I1Cent=           0 FoldK=F
 IRaf= 750000000 NMat=     156 IRICut=     390 DoRegI=T DoRafI=T ISym2E= 2 IDoP0=3 IntGTp=3.
          There are   159 degrees of freedom in the 1st order CPHF.  IDoFFX=6 NUNeed=     0.
    153 vectors produced by pass  0 Test12= 4.34D-14 1.00D-09 XBig12= 1.69D-01 9.10D-02.
 AX will form   153 AO Fock derivatives at one time.
    153 vectors produced by pass  1 Test12= 4.34D-14 1.00D-09 XBig12= 4.24D-02 3.72D-02.
    153 vectors produced by pass  2 Test12= 4.34D-14 1.00D-09 XBig12= 8.67D-04 2.59D-03.
    153 vectors produced by pass  3 Test12= 4.34D-14 1.00D-09 XBig12= 7.19D-06 1.76D-04.
    153 vectors produced by pass  4 Test12= 4.34D-14 1.00D-09 XBig12= 4.64D-08 1.29D-05.
    153 vectors produced by pass  5 Test12= 4.34D-14 1.00D-09 XBig12= 1.92D-10 8.24D-07.
     94 vectors produced by pass  6 Test12= 4.34D-14 1.00D-09 XBig12= 6.24D-13 4.63D-08.
     10 vectors produced by pass  7 Test12= 4.34D-14 1.00D-09 XBig12= 1.92D-15 2.58D-09.
      2 vectors produced by pass  8 Test12= 4.34D-14 1.00D-09 XBig12= 2.04D-16 1.53D-09.
 InvSVY:  IOpt=1 It=  1 EMax= 3.89D-16
 Solved reduced A of dimension  1024 with   159 vectors.
 End of Minotr F.D. properties file   721 does not exist.
 End of Minotr F.D. properties file   722 does not exist.
 End of Minotr F.D. properties file   788 does not exist.
 Leave Link 1002 at Tue Sep 26 15:46:56 2023, MaxMem=  2147483648 cpu:           18144.8 elap:            1134.4
 (Enter /gpfs1/apps/software/Gaussian16/AVX2/g16/l601.exe)
 Copying SCF densities to generalized density rwf, IOpCl= 0 IROHF=0.

 **********************************************************************

            Population analysis using the SCF Density.

 **********************************************************************

 Orbital symmetries:
       Occupied  (A) (A) (A) (A) (A) (A) (A) (A) (A) (A) (A) (A)
                 (A) (A) (A) (A) (A) (A) (A) (A) (A) (A) (A) (A)
                 (A) (A) (A) (A) (A) (A) (A) (A) (A) (A) (A) (A)
                 (A) (A) (A) (A) (A) (A) (A) (A) (A) (A) (A) (A)
                 (A) (A) (A) (A) (A) (A) (A) (A) (A) (A) (A) (A)
                 (A) (A) (A) (A) (A) (A) (A) (A) (A) (A) (A) (A)
                 (A) (A) (A) (A) (A) (A) (A) (A) (A) (A) (A) (A)
                 (A) (A) (A) (A) (A) (A) (A) (A) (A) (A) (A) (A)
                 (A) (A) (A) (A) (A) (A) (A) (A)
       Virtual   (A) (A) (A) (A) (A) (A) (A) (A) (A) (A) (A) (A)
                 (A) (A) (A) (A) (A) (A) (A) (A) (A) (A) (A) (A)
                 (A) (A) (A) (A) (A) (A) (A) (A) (A) (A) (A) (A)
                 (A) (A) (A) (A) (A) (A) (A) (A) (A) (A) (A) (A)
                 (A) (A) (A) (A) (A) (A) (A) (A) (A) (A) (A) (A)
                 (A) (A) (A) (A) (A) (A) (A) (A) (A) (A) (A) (A)
                 (A) (A) (A) (A) (A) (A) (A) (A) (A) (A) (A) (A)
                 (A) (A) (A) (A) (A) (A) (A) (A) (A) (A) (A) (A)
                 (A) (A) (A) (A) (A) (A) (A) (A) (A) (A) (A) (A)
                 (A) (A) (A) (A) (A) (A) (A) (A) (A) (A) (A) (A)
                 (A) (A) (A) (A) (A) (A) (A) (A) (A) (A) (A) (A)
                 (A) (A) (A) (A) (A) (A) (A) (A) (A) (A) (A) (A)
                 (A) (A) (A) (A) (A) (A) (A) (A) (A) (A) (A) (A)
                 (A) (A) (A) (A) (A) (A) (A) (A) (A) (A) (A) (A)
                 (A) (A) (A) (A) (A) (A) (A) (A) (A) (A) (A) (A)
                 (A) (A) (A) (A) (A) (A) (A) (A) (A) (A) (A) (A)
                 (A) (A) (A) (A) (A) (A) (A) (A) (A) (A) (A) (A)
                 (A) (A) (A) (A) (A) (A) (A) (A) (A) (A) (A) (A)
                 (A) (A) (A) (A) (A) (A) (A) (A) (A) (A) (A) (A)
                 (A) (A) (A) (A) (A) (A) (A) (A) (A) (A) (A) (A)
                 (A) (A) (A) (A) (A) (A) (A) (A) (A) (A) (A) (A)
                 (A) (A) (A) (A) (A) (A) (A) (A) (A) (A) (A) (A)
                 (A) (A) (A) (A) (A) (A) (A) (A) (A) (A) (A) (A)
                 (A) (A) (A) (A) (A) (A) (A) (A) (A) (A) (A) (A)
                 (A) (A) (A) (A) (A) (A) (A) (A) (A) (A) (A) (A)
                 (A) (A) (A) (A) (A) (A) (A) (A) (A) (A) (A) (A)
                 (A) (A) (A) (A) (A) (A) (A) (A) (A) (A) (A) (A)
                 (A) (A) (A) (A) (A) (A) (A) (A) (A) (A) (A) (A)
                 (A) (A) (A) (A) (A) (A) (A) (A) (A) (A) (A) (A)
                 (A) (A) (A) (A) (A) (A) (A) (A) (A) (A) (A) (A)
                 (A) (A) (A) (A) (A) (A) (A) (A) (A) (A) (A) (A)
                 (A) (A) (A) (A) (A) (A) (A) (A) (A) (A) (A) (A)
                 (A) (A) (A) (A) (A) (A) (A) (A) (A) (A) (A) (A)
                 (A) (A) (A) (A) (A) (A) (A) (A) (A) (A) (A) (A)
                 (A) (A) (A) (A) (A) (A) (A) (A) (A)
 The electronic state is 1-A.
 Alpha  occ. eigenvalues --  -19.65250 -19.64254 -19.63835 -19.53694 -14.85368
 Alpha  occ. eigenvalues --  -14.83723 -14.79342 -10.70170 -10.66571 -10.60982
 Alpha  occ. eigenvalues --  -10.60837 -10.60779 -10.60765 -10.60583 -10.59503
 Alpha  occ. eigenvalues --  -10.59357 -10.57794 -10.56710 -10.55837 -10.55835
 Alpha  occ. eigenvalues --  -10.55693 -10.55688 -10.55686 -10.55593 -10.55508
 Alpha  occ. eigenvalues --  -10.55419 -10.55366 -10.55286 -10.54470  -1.20486
 Alpha  occ. eigenvalues --   -1.18879  -1.16739  -1.13288  -1.08419  -1.04788
 Alpha  occ. eigenvalues --   -0.97774  -0.95507  -0.93233  -0.88700  -0.88093
 Alpha  occ. eigenvalues --   -0.84739  -0.83714  -0.83033  -0.82684  -0.81365
 Alpha  occ. eigenvalues --   -0.79132  -0.76768  -0.75962  -0.70932  -0.69856
 Alpha  occ. eigenvalues --   -0.69237  -0.68339  -0.68171  -0.65702  -0.64404
 Alpha  occ. eigenvalues --   -0.62834  -0.60828  -0.60054  -0.59290  -0.57778
 Alpha  occ. eigenvalues --   -0.57708  -0.56354  -0.56080  -0.55466  -0.55272
 Alpha  occ. eigenvalues --   -0.54723  -0.54241  -0.52950  -0.52386  -0.51623
 Alpha  occ. eigenvalues --   -0.51228  -0.50420  -0.49549  -0.48976  -0.48766
 Alpha  occ. eigenvalues --   -0.48363  -0.47938  -0.47399  -0.47132  -0.46334
 Alpha  occ. eigenvalues --   -0.45881  -0.45141  -0.44327  -0.44043  -0.43276
 Alpha  occ. eigenvalues --   -0.43170  -0.42769  -0.42403  -0.41561  -0.40697
 Alpha  occ. eigenvalues --   -0.40515  -0.39856  -0.39554  -0.38329  -0.35904
 Alpha  occ. eigenvalues --   -0.35706  -0.34280  -0.33769  -0.31182  -0.31031
 Alpha  occ. eigenvalues --   -0.30576  -0.27597  -0.26752  -0.26398
 Alpha virt. eigenvalues --   -0.00702   0.01730   0.02223   0.02466   0.02540
 Alpha virt. eigenvalues --    0.04182   0.09567   0.10131   0.11170   0.11522
 Alpha virt. eigenvalues --    0.12194   0.12365   0.13619   0.13911   0.14605
 Alpha virt. eigenvalues --    0.15216   0.15524   0.16028   0.16544   0.17207
 Alpha virt. eigenvalues --    0.17535   0.18113   0.18370   0.18583   0.18767
 Alpha virt. eigenvalues --    0.19119   0.19487   0.20035   0.20496   0.20781
 Alpha virt. eigenvalues --    0.21320   0.21578   0.21886   0.22288   0.22461
 Alpha virt. eigenvalues --    0.23563   0.24879   0.25467   0.25891   0.26784
 Alpha virt. eigenvalues --    0.27796   0.28474   0.28968   0.29644   0.30576
 Alpha virt. eigenvalues --    0.31582   0.31971   0.32963   0.33136   0.33517
 Alpha virt. eigenvalues --    0.33754   0.34457   0.35195   0.35968   0.36188
 Alpha virt. eigenvalues --    0.37751   0.38297   0.38806   0.40581   0.41411
 Alpha virt. eigenvalues --    0.43375   0.44537   0.44943   0.45321   0.45549
 Alpha virt. eigenvalues --    0.46537   0.46892   0.47592   0.48100   0.49129
 Alpha virt. eigenvalues --    0.49377   0.49931   0.50332   0.50470   0.51112
 Alpha virt. eigenvalues --    0.51529   0.52247   0.52642   0.53393   0.53896
 Alpha virt. eigenvalues --    0.54032   0.54151   0.54892   0.55318   0.56183
 Alpha virt. eigenvalues --    0.57008   0.57434   0.58077   0.58331   0.59025
 Alpha virt. eigenvalues --    0.59895   0.60534   0.61341   0.62234   0.62635
 Alpha virt. eigenvalues --    0.63419   0.64177   0.64588   0.64998   0.65396
 Alpha virt. eigenvalues --    0.65709   0.66578   0.67127   0.67440   0.67862
 Alpha virt. eigenvalues --    0.68837   0.69280   0.69586   0.70150   0.70284
 Alpha virt. eigenvalues --    0.70657   0.70954   0.71342   0.71503   0.71955
 Alpha virt. eigenvalues --    0.72142   0.72402   0.72714   0.72933   0.73329
 Alpha virt. eigenvalues --    0.73665   0.73872   0.74370   0.74614   0.74787
 Alpha virt. eigenvalues --    0.75102   0.75541   0.75943   0.76476   0.76807
 Alpha virt. eigenvalues --    0.77103   0.78189   0.78340   0.78873   0.79235
 Alpha virt. eigenvalues --    0.79889   0.80230   0.80608   0.81302   0.81859
 Alpha virt. eigenvalues --    0.82276   0.82588   0.83717   0.84213   0.84609
 Alpha virt. eigenvalues --    0.85821   0.86725   0.86869   0.88120   0.88875
 Alpha virt. eigenvalues --    0.89853   0.91617   0.92096   0.92725   0.94198
 Alpha virt. eigenvalues --    0.95172   0.95317   0.97389   0.99703   1.00299
 Alpha virt. eigenvalues --    1.02390   1.02760   1.03459   1.04954   1.06356
 Alpha virt. eigenvalues --    1.07283   1.08788   1.09884   1.10580   1.12296
 Alpha virt. eigenvalues --    1.13097   1.15014   1.15786   1.17614   1.17888
 Alpha virt. eigenvalues --    1.19388   1.19645   1.19827   1.21173   1.22239
 Alpha virt. eigenvalues --    1.23178   1.25137   1.26372   1.27317   1.27629
 Alpha virt. eigenvalues --    1.27740   1.28660   1.29724   1.30370   1.30691
 Alpha virt. eigenvalues --    1.31284   1.32096   1.32220   1.32819   1.33211
 Alpha virt. eigenvalues --    1.33651   1.34232   1.35086   1.35362   1.36400
 Alpha virt. eigenvalues --    1.37259   1.37420   1.37991   1.39192   1.39615
 Alpha virt. eigenvalues --    1.41332   1.42505   1.43714   1.47446   1.47947
 Alpha virt. eigenvalues --    1.49480   1.50930   1.51842   1.52821   1.53510
 Alpha virt. eigenvalues --    1.54817   1.56108   1.56524   1.57478   1.59813
 Alpha virt. eigenvalues --    1.61236   1.61918   1.64282   1.65425   1.66196
 Alpha virt. eigenvalues --    1.67545   1.68892   1.71215   1.72196   1.72448
 Alpha virt. eigenvalues --    1.73045   1.73556   1.73826   1.74884   1.75684
 Alpha virt. eigenvalues --    1.76234   1.76938   1.77685   1.78136   1.78265
 Alpha virt. eigenvalues --    1.79258   1.79411   1.79842   1.79963   1.80370
 Alpha virt. eigenvalues --    1.80626   1.80998   1.81259   1.81670   1.81780
 Alpha virt. eigenvalues --    1.82360   1.82434   1.82913   1.83415   1.83666
 Alpha virt. eigenvalues --    1.84014   1.84475   1.85322   1.85947   1.86411
 Alpha virt. eigenvalues --    1.87011   1.87035   1.88927   1.89282   1.90068
 Alpha virt. eigenvalues --    1.90453   1.90840   1.92105   1.92343   1.93095
 Alpha virt. eigenvalues --    1.93760   1.94347   1.95138   1.95733   1.95980
 Alpha virt. eigenvalues --    1.96767   1.97887   1.98207   1.98517   1.99037
 Alpha virt. eigenvalues --    1.99533   2.00544   2.00790   2.01775   2.01940
 Alpha virt. eigenvalues --    2.02435   2.03164   2.03265   2.04662   2.06122
 Alpha virt. eigenvalues --    2.06689   2.07820   2.08441   2.08851   2.09810
 Alpha virt. eigenvalues --    2.11470   2.12605   2.13999   2.14587   2.15949
 Alpha virt. eigenvalues --    2.16784   2.17289   2.17648   2.18020   2.18236
 Alpha virt. eigenvalues --    2.19289   2.20120   2.20995   2.22624   2.23696
 Alpha virt. eigenvalues --    2.24049   2.25364   2.27379   2.27975   2.29422
 Alpha virt. eigenvalues --    2.30368   2.30684   2.32106   2.32773   2.33304
 Alpha virt. eigenvalues --    2.33679   2.33793   2.33977   2.35356   2.35754
 Alpha virt. eigenvalues --    2.36884   2.37235   2.37963   2.38159   2.39439
 Alpha virt. eigenvalues --    2.41077   2.42710   2.43817   2.44271   2.46354
 Alpha virt. eigenvalues --    2.48892   2.49925   2.50603   2.51270   2.51898
 Alpha virt. eigenvalues --    2.52541   2.53461   2.54537   2.57589   2.60963
 Alpha virt. eigenvalues --    2.61659   2.63067   2.63675   2.64342   2.65151
 Alpha virt. eigenvalues --    2.65941   2.66831   2.68252   2.69768   2.70265
 Alpha virt. eigenvalues --    2.70863   2.73156   2.73611   2.75194   2.75322
 Alpha virt. eigenvalues --    2.75727   2.75988   2.76300   2.77190   2.77883
 Alpha virt. eigenvalues --    2.78605   2.79263   2.80601   2.80887   2.82361
 Alpha virt. eigenvalues --    2.83879   2.84584   2.85824   2.88077   2.88800
 Alpha virt. eigenvalues --    2.89774   2.90561   2.91056   2.91757   2.93386
 Alpha virt. eigenvalues --    2.93974   2.94172   2.97263   2.98494   3.00079
 Alpha virt. eigenvalues --    3.00136   3.00530   3.01478   3.02521   3.07338
 Alpha virt. eigenvalues --    3.08582   3.10632   3.10756   3.12851   3.13664
 Alpha virt. eigenvalues --    3.13967   3.15527   3.18400   3.18530   3.19155
 Alpha virt. eigenvalues --    3.21538   3.23807   3.24968   3.26397   3.26813
 Alpha virt. eigenvalues --    3.34116   3.35525   3.38640   3.42365   3.54484
[...]
 00080,-0.00000099,-0.00000092,0.00000060,0.00000729,0.00000262,-0.0000
 0031,0.00001452,0.00002060,0.00000304,-0.00004529,-0.00000516,-0.00000
 099,0.00001742,-0.00000694,-0.00002174,-0.00000644,-0.00000631,-0.0000
 7204,-0.00001314,-0.00002449,0.00002695,-0.00004241,0.00005209,0.00003
 449,0.00000861,-0.00004520,0.00000843,-0.00000230,0.00000385,0.0000022
 8,0.00000831,0.00000608,0.00001830,-0.00000348,0.00000346,-0.00000387,
 -0.00000055,-0.00000649,-0.00000327,-0.00000356,0.00000559,0.00000691,
 0.00001268,0.00000222,-0.00001523,0.00002114,-0.00015572,-0.00005957,-
 0.00011552,0.00017439,0.00012963,0.00176822,0.00252981,0.00347752,-0.0
 0281782,0.00279988,0.00622792,0.14259316,-0.04426778,-0.17865748,0.015
 79304,-0.00802529,-0.00865725,0.00303858,0.00500247,-0.00004220,-0.000
 77205,0.00046888,-0.00028377,-0.00000245,0.00000169,0.00000025,0.00000
 073,-0.00000070,-0.00000030,0.00000068,-0.00000005,-0.00000028,0.00000
 043,0.00000051,-0.00000017,-0.00000249,-0.00000133,-0.00000023,0.00000
 210,0.00000694,-0.00001882,0.00000931,0.00000082,0.00000637,0.00002332
 ,-0.00002828,0.00002453,-0.00000015,0.00000004,-0.00000006,-0.00000095
 ,-0.00000176,0.00000040,0.00000113,-0.00000303,-0.00000037,-0.00000003
 ,0.00000050,0.00000004,0.00000098,-0.00000292,-0.00000011,0.00000040,-
 0.00000027,-0.00000031,-0.00000034,0.00000248,0.00000067,0.00000009,0.
 00000457,-0.00000112,-0.00005502,0.00001509,-0.00003449,-0.00189964,-0
 .00144557,-0.00115030,-0.15573459,0.04512708,0.18049008,-0.00001115,0.
 00001231,0.00000431,0.00001996,-0.00001534,-0.00004259,-0.00004162,-0.
 00000606,0.00000401,0.00002158,-0.00000869,-0.00000239,-0.00000444,0.0
 0000131,0.00000072,0.00000129,-0.00000089,-0.00000096,-0.00000293,-0.0
 0000070,0.00000045,0.00000064,0.00000002,-0.00000080,-0.00000713,0.000
 00065,0.00000128,-0.00000938,-0.00001490,0.00000019,0.00000841,0.00003
 150,0.00002671,-0.00000277,-0.00001188,-0.00001930,0.00001290,0.000077
 66,0.00011166,0.00003783,0.00006855,-0.00011762,-0.00001805,-0.0000423
 7,0.00003146,0.00000877,-0.00000422,0.00001641,-0.00000096,-0.00000952
 ,-0.00000077,-0.00000297,0.00000253,0.,0.00000260,-0.00000512,0.000002
 64,-0.00000141,0.00000508,-0.00000399,0.00000242,-0.00000223,0.0000025
 2,-0.00000050,-0.00000555,0.00000503,0.00000627,0.00004350,-0.00005413
 ,-0.00054229,-0.00023205,-0.00054019,-0.00060023,-0.00076304,0.0002685
 7,0.00352638,0.00079748,0.00392516,0.00754865,-0.00792211,0.00194803,-
 0.11341947,0.12533048,-0.00489216,-0.00441126,0.01898424,-0.00362122,0
 .00117295,0.00228639,0.00583043,0.00000225,-0.00000140,0.00000054,-0.0
 0000016,0.00000013,0.00000030,-0.00000027,0.00000006,0.00000024,-0.000
 00154,-0.00000027,0.00000037,0.00000078,0.00000233,0.00000061,-0.00000
 702,-0.00000383,-0.00000132,-0.00000708,0.00000503,-0.00001192,0.00001
 019,0.00002709,0.00002897,-0.00000041,-0.00000040,0.00000126,0.0000023
 6,0.00000096,-0.00000146,-0.00000010,0.00000073,0.00000005,-0.00000065
 ,0.00000016,-0.00000026,0.00000018,0.00000082,-0.00000027,-0.00000108,
 -0.00000001,0.00000022,0.00000006,0.00000043,-0.00000030,-0.00000152,-
 0.00000308,0.00000134,0.00005770,-0.00003556,-0.00005004,0.00024436,-0
 .00040185,0.00007867,-0.00178284,-0.00103788,-0.00220492,0.10981306,0.
 00002295,-0.00002116,-0.00000550,-0.00004679,0.00001588,-0.00000405,0.
 00002847,-0.00001204,-0.00000868,-0.00003408,0.00000234,0.00000710,0.0
 0000793,-0.00000359,-0.00000211,-0.00000154,0.00000054,0.00000074,0.00
 000409,-0.00000004,-0.00000079,-0.00000137,-0.00000112,0.00000064,0.00
 000755,0.00000267,-0.00000010,0.00001779,0.00002646,0.00000734,-0.0000
 3556,-0.00000578,0.00000626,0.00002467,0.00002469,0.00001956,-0.000054
 54,0.00004198,0.00002358,0.00010226,-0.00000813,0.00000430,-0.00007029
 ,0.00016721,0.00002796,0.00002072,-0.00010718,0.00002847,-0.00001738,0
 .00000420,-0.00000096,0.00001141,0.00000635,0.00002979,-0.00000597,0.0
 0000733,-0.00000806,0.00000046,-0.00000919,-0.00000081,-0.00000789,0.0
 0000548,0.00001052,0.00001922,0.00000034,-0.00002669,0.00002986,-0.000
 13647,-0.00007371,-0.00038016,-0.00017915,-0.00031014,-0.00068417,0.00
 030492,0.00005298,0.00020642,0.00068180,0.00461599,0.01018220,-0.01036
 833,-0.00114216,0.12523572,-0.27956864,0.02739734,0.00121596,-0.001770
 79,0.00306224,0.00268542,0.00258482,0.00043916,-0.00000307,0.00000208,
 0.00000007,0.00000071,-0.00000072,-0.00000041,0.00000076,-0.00000004,-
 0.00000036,0.00000063,0.00000065,-0.00000029,-0.00000279,-0.00000158,-
 0.00000071,-0.00000190,-0.00000215,-0.00002033,0.00001944,-0.00000208,
 0.00000491,-0.00000849,-0.00003772,0.00000241,-0.00000046,0.00000084,-
 0.00000033,-0.00000135,-0.00000044,0.00000149,0.00000155,-0.00000481,-
 0.00000024,0.00000055,0.00000025,0.00000030,0.00000165,-0.00000557,-0.
 00000054,0.00000132,-0.00000030,-0.00000052,-0.00000039,0.00000277,0.0
 0000111,-0.00000031,0.00000456,-0.00000218,0.00005132,-0.00001775,-0.0
 0003366,0.00050857,-0.00059276,-0.00011826,-0.00142134,-0.00000822,-0.
 00147967,-0.13624712,0.28957345,-0.00001036,0.00000818,0.00000888,0.00
 000981,-0.00000715,-0.00003878,-0.00002724,-0.00000423,0.00000694,0.00
 000649,-0.00000600,-0.00000255,-0.00000161,0.00000093,0.00000038,0.000
 00029,-0.00000046,-0.00000008,-0.00000127,-0.00000036,0.00000007,-0.00
 000049,-0.00000071,-0.00000012,-0.00000349,0.00000078,0.00000129,-0.00
 001558,-0.00001146,0.00000061,0.00002500,0.00001964,0.00001179,-0.0000
 1919,-0.00003326,-0.00002228,0.00002748,0.00008417,0.00003399,-0.00004
 524,0.00005883,-0.00004971,0.00020932,-0.00007952,-0.00000326,-0.00001
 970,-0.00001994,0.00001624,0.00000031,-0.00000054,-0.00000416,-0.00000
 108,0.00000088,-0.00000658,0.00000108,-0.00000201,0.00000239,-0.000001
 01,0.00000259,-0.00000083,0.00000049,-0.00000340,0.00000198,0.00000050
 ,-0.00000705,0.00000256,-0.00010471,0.00013786,0.00003112,-0.00057745,
 -0.00031150,-0.00023386,0.00019647,-0.00018867,-0.00097921,0.00413554,
 0.00412809,-0.00071551,-0.01127609,0.01997958,0.00300308,-0.00490974,0
 .02750870,-0.05413640,0.00972237,-0.01825248,0.00618777,0.00558970,0.0
 0108139,0.00009682,0.00000115,-0.00000043,-0.00000020,-0.00000009,-0.0
 0000005,0.00000010,0.00000008,-0.00000007,0.00000009,-0.00000071,0.,0.
 00000033,-0.00000037,0.00000069,-0.00000010,0.00000231,0.00000364,0.00
 001402,-0.00001415,0.00000566,-0.00000888,0.00000367,0.00002698,0.0000
 1420,-0.00000090,-0.00000126,0.00000054,0.00000113,0.00000136,0.000000
 01,-0.00000015,0.00000082,-0.00000003,-0.00000067,0.00000042,-0.000000
 44,0.00000021,0.00000048,-0.00000009,-0.00000084,0.00000065,0.00000022
 ,-0.00000091,-0.00000175,0.00000042,-0.00000081,-0.00000357,0.00000171
 ,-0.00000375,0.00005848,-0.00003069,-0.00054972,0.00080586,0.00002287,
 -0.00195111,-0.00186872,-0.00055145,0.00171493,-0.03144292,0.04792143,
 -0.00001869,-0.00001584,0.00000259,0.00003339,0.00001448,-0.00001613,-
 0.00002892,-0.00001429,0.00000658,0.00000645,-0.00000290,-0.00000547,-
 0.00000167,0.00000092,0.00000119,0.00000107,-0.00000056,0.00000063,-0.
 00000145,-0.00000154,0.00000084,-0.00000154,-0.00000177,0.00000225,-0.
 00000236,0.00000095,0.00000449,-0.00001792,-0.00001712,0.00001187,0.00
 002128,0.00003462,-0.00000218,-0.00003228,-0.00003130,-0.00002251,0.00
 004598,0.00005361,0.00005268,-0.00000603,-0.00001106,-0.00006881,-0.00
 010381,0.00007081,0.00002457,0.00002542,0.00006590,-0.00001973,0.00002
 878,-0.00000407,0.00000093,-0.00000321,0.00000065,-0.00001276,0.000004
 44,-0.00000284,0.00000342,-0.00000256,0.00000163,-0.00000041,0.0000050
 1,-0.00000036,-0.00000611,-0.00001089,0.00000886,0.00001387,0.00000223
 ,0.00001473,-0.00003860,0.00025304,0.00034780,-0.00040894,0.00244110,0
 .00450436,0.00242377,-0.00086499,0.00032696,-0.00021555,0.00072255,0.0
 0388805,0.00509119,-0.00012167,-0.01423277,0.01594227,-0.06677584,-0.0
 3913310,0.06088855,0.00760715,0.00969831,-0.01103070,0.00000086,-0.000
 00007,-0.00000115,0.00000006,-0.00000040,-0.00000054,0.00000029,-0.000
 00002,-0.00000081,-0.00000190,0.00000036,-0.00000083,-0.00000253,0.000
 00195,-0.00000462,-0.00000338,-0.00000104,0.00001046,-0.00000390,-0.00
 000290,-0.00000689,0.00002177,0.00000697,-0.00000594,-0.00000055,-0.00
 000059,0.00000218,0.00000291,-0.00000056,-0.00000062,-0.00000015,0.000
 00176,-0.00000016,-0.00000129,0.00000055,-0.00000093,-0.00000102,0.000
 00294,0.00000038,-0.00000131,0.00000033,0.00000019,0.00000014,-0.00000
 018,0.00000011,-0.00000040,-0.00000109,0.00000036,0.00000588,-0.000023
 95,-0.00000734,-0.00045587,-0.00038654,-0.00044928,-0.00013690,-0.0006
 7991,0.00075353,-0.00130762,-0.00145118,-0.00258462,0.06033148,0.00005
 594,-0.00004906,-0.00003769,-0.00011290,0.00003806,0.00010589,0.000092
 02,-0.00001145,-0.00004003,-0.00006447,0.00001507,0.00001422,0.0000145
 8,-0.00000795,-0.00000554,-0.00000295,0.00000130,-0.00000005,0.0000086
 2,0.00000068,-0.00000291,-0.00000033,0.00000026,-0.00000078,0.00001658
 ,0.00000402,-0.00000493,0.00004229,0.00007218,0.00000257,-0.00006119,-
 0.00007484,-0.00001361,0.00001641,0.00002061,-0.00000788,-0.00000462,-
 0.00009840,-0.00020953,0.00000407,-0.00002334,0.00016893,0.00041422,0.
 00018278,-0.00009847,-0.00003698,-0.00026160,0.00006936,-0.00004431,0.
 00002958,-0.00000106,0.00002162,0.00001168,0.00006537,-0.00001534,0.00
 000827,-0.00001641,0.00000334,-0.00001208,-0.00000936,-0.00001997,0.00
 000923,0.00003033,0.00004250,-0.00001412,-0.00006128,-0.00012229,-0.00
 009277,0.00002022,-0.00059321,-0.00051198,0.00095909,0.00502371,-0.001
 99966,0.00100416,0.00032840,-0.00034537,-0.00082515,0.00328729,0.00185
 908,0.00016755,0.00361717,0.00896136,-0.00756500,-0.03903642,-0.165798
 29,0.13851909,-0.00812806,-0.01047867,0.02064485,-0.00000629,0.0000034
 1,0.00000215,0.00000170,-0.00000118,0.00000021,0.00000119,-0.00000003,
 0.00000041,0.00000237,0.00000085,0.00000053,-0.00000274,-0.00000310,0.
 00000320,-0.00000380,-0.00000890,-0.00000437,0.00000326,0.00000187,0.0
 0001478,0.00000372,-0.00001809,0.00000647,-0.00000197,-0.00000241,-0.0
 0000384,-0.00000144,-0.00000002,0.00000445,0.00000283,-0.00001116,-0.0
 0000002,0.00000143,0.00000140,0.00000190,0.00000439,-0.00001220,-0.000
 00232,0.00000220,-0.00000025,-0.00000124,-0.00000247,0.00000034,0.0000
 0427,0.00000116,0.00000775,-0.00000485,-0.00000175,0.00003783,-0.00006
 312,-0.00038575,-0.00017494,-0.00019832,0.00017137,0.00027937,-0.00036
 632,-0.00178885,-0.00037119,-0.00078881,0.03892639,0.16848970,-0.00002
 361,0.00000946,0.00000489,0.00004933,-0.00001237,-0.00003468,-0.000059
 44,-0.00000254,0.00001392,0.00003063,-0.00000778,-0.00000635,-0.000007
 21,0.00000250,0.00000174,0.00000240,-0.00000124,-0.00000092,-0.0000040
 4,-0.00000166,0.00000068,0.,-0.00000034,0.00000036,-0.00000875,0.00000
 091,0.00000351,-0.00002194,-0.00002472,0.00000314,0.00003488,0.0000382
 9,0.00000886,-0.00005134,-0.00002647,-0.00001095,0.00005309,0.00005111
 ,0.00011852,-0.00000401,0.00004749,-0.00009897,0.00001089,-0.00002756,
 -0.00000320,0.00001026,0.00003891,-0.00000927,0.00001479,-0.00000819,0
 .00000014,-0.00000583,-0.00000128,-0.00001509,0.00000494,-0.00000669,0
 .00000448,-0.00000221,0.00000708,-0.00000172,0.00000566,-0.00000429,-0
 .00000406,-0.00001121,-0.00000034,0.00001556,-0.00000568,0.00005509,-0
 .00000488,0.00002514,-0.00011898,-0.00001434,0.00236688,0.00136263,0.0
 0366211,-0.00027625,-0.00077032,-0.00005254,0.00549629,-0.00022630,0.0
 0107802,0.00259251,0.01360531,-0.00861527,0.06096695,0.13873430,-0.214
 09577,0.00196873,-0.00087172,0.00247268,0.00000284,-0.00000175,-0.0000
 0015,-0.00000027,0.00000009,0.00000018,-0.00000025,-0.00000003,0.00000
 001,-0.00000243,-0.00000027,0.00000005,-0.00000027,0.00000342,-0.00000
 195,0.00000428,-0.00000731,0.00001896,-0.00001377,0.00000173,-0.000014
 60,0.00005040,0.00003608,-0.00000630,-0.00000022,-0.00000112,0.0000014
 8,0.00000234,0.00000025,-0.00000157,-0.00000054,0.00000239,0.00000021,
 -0.00000124,0.00000030,-0.00000053,-0.00000070,0.00000308,0.00000013,-
 0.00000183,0.00000042,0.00000039,0.00000014,-0.00000142,-0.00000038,-0
 .00000068,-0.00000436,0.00000152,-0.00000795,0.00001561,-0.00003836,-0
 .00047601,-0.00020019,-0.00038334,0.00011974,0.00062354,-0.00053575,-0
 .00229167,-0.00120388,-0.00073805,-0.06852666,-0.14999779,0.21843105,0
 .00000274,-0.00001917,0.00000088,0.00003770,0.00003437,-0.00003852,0.0
 0000887,-0.00005989,0.00003936,-0.00003912,-0.00000028,0.00000387,0.00
 000734,-0.00000250,-0.00000205,-0.00000177,-0.00000005,0.00000061,0.00
 000347,-0.00000104,-0.00000095,-0.00000345,-0.00000200,0.00000183,0.00
 000646,0.00000185,0.00000374,-0.00002177,-0.00000154,0.00005080,0.0000
 1174,0.00002960,0.00006273,0.00002036,0.00000734,0.00002646,-0.0000033
 6,0.00031403,0.00004400,0.00001361,-0.00000357,-0.00032106,0.00009612,
 -0.00018854,0.00006918,-0.00003716,-0.00014975,0.00007418,-0.00001709,
 0.00000908,-0.00000471,0.00000491,0.00001443,0.00005118,-0.00000019,-0
 .00000882,-0.00000811,-0.00000173,0.00000483,-0.00001846,-0.00000624,0
 .00000502,0.00002734,0.00002397,-0.00002571,-0.00003506,0.00002239,-0.
 00004317,-0.00007426,-0.00176839,-0.00042535,-0.00231374,-0.00119357,0
 .00407427,0.00391941,0.00380798,0.00057869,0.00316637,-0.00007977,-0.0
 0039041,-0.00066151,0.00344877,0.00437949,0.00150967,-0.00484023,0.001
 23730,0.00970281,-0.19266778,0.05757535,0.14109127,-0.00000148,0.00000
 202,0.00000010,0.00000125,-0.00000100,-0.00000031,0.00000102,-0.000000
 15,-0.00000036,0.,0.00000070,-0.00000042,-0.00000451,-0.00000169,-0.00
 000299,-0.00000587,0.00000229,-0.00001177,0.00001189,-0.00000341,0.000
 00790,0.00000500,-0.00003363,0.00001030,-0.00000409,-0.00000629,0.0000
 0269,0.00001267,-0.00000106,0.00000106,0.00000169,-0.00000662,-0.00000
 002,-0.00000139,0.00000274,-0.00000002,0.00000272,-0.00000615,-0.00000
 226,-0.00000012,-0.00000076,-0.00000099,-0.00000186,0.00000160,0.00000
 353,-0.00000314,0.00000222,-0.00000285,0.00037736,-0.00064366,0.000042
 98,-0.00019022,0.00025395,0.00010865,-0.00054954,-0.00029478,-0.000359
 19,-0.00031474,0.00006856,0.00047472,-0.00165060,-0.00167269,-0.002007
 12,0.19547913,-0.00002644,-0.00001872,-0.00001556,0.00007773,0.0000614
 7,-0.00008880,-0.00008423,-0.00002241,-0.00001700,0.00003322,-0.000011
 41,-0.00000665,-0.00000695,0.00000258,0.00000246,0.00000357,-0.0000020
 4,-0.00000199,-0.00000470,-0.00000335,0.00000126,-0.00000276,-0.000002
 08,0.00000245,-0.00000699,0.00000264,0.00000798,-0.00004545,-0.0000168
 0,0.00004272,0.00004920,0.00005651,-0.00003942,-0.00001934,-0.00001052
 ,0.00000600,-0.00003421,0.00020150,0.00021701,0.00005636,0.00001666,-0
 .00016248,-0.00001011,-0.00008841,0.00013638,-0.00000160,-0.00000982,0
 .00000442,0.00000257,-0.00001267,0.00001336,-0.00001077,0.00000428,0.0
 0002673,0.00000879,-0.00001755,-0.00000132,-0.00000093,0.00001572,-0.0
 0001911,0.00000400,0.00000189,0.00000991,-0.00000186,-0.00001764,0.000
 01164,0.00002610,0.00003073,-0.00004402,-0.00251636,0.00011170,0.00018
 680,-0.01239493,0.00702764,0.01254884,0.00101742,-0.00077524,0.0044917
 3,-0.00025604,-0.00096063,0.00029581,0.00391363,-0.00297694,0.00289525
 ,0.01908943,-0.00157918,-0.01824426,0.05751200,-0.07244712,-0.04454457
 ,0.00000415,-0.00000258,0.00000127,0.00000042,-0.00000018,0.00000005,-
 0.00000016,-0.00000014,-0.00000058,-0.00000339,-0.00000018,-0.00000101
 ,-0.00000325,0.00000217,-0.00000662,-0.00000683,-0.00000283,0.00000077
 ,0.00000195,-0.00000521,-0.00000304,0.00004266,-0.00001853,0.00001061,
 -0.00000125,-0.00000187,-0.00000137,0.00000689,0.00000080,-0.00001137,
 -0.00000083,-0.00000043,0.00000181,-0.00000084,0.00000065,0.00000044,0
 .00000016,0.00000117,-0.00000111,-0.00000154,-0.00000103,-0.00000030,0
 .00000077,0.00000163,-0.00000026,-0.00000145,-0.00000119,-0.00000104,0
 .00020958,0.00004010,-0.00049339,-0.00065541,0.00035915,0.00062036,-0.
 00028547,-0.00009631,-0.00033733,0.00088550,-0.00022463,-0.00088038,-0
 .00195594,0.00034639,-0.00110907,-0.06460605,0.07104224,-0.00002317,-0
 .00002284,0.00004050,0.00002827,0.00008414,-0.00018183,-0.00006113,0.0
 0000071,0.00006735,-0.00004802,-0.00000576,-0.00000161,0.00000665,-0.0
 0000079,-0.00000099,-0.00000030,-0.00000090,0.00000156,0.00000435,-0.0
 0000261,-0.00000141,-0.00000628,-0.00000364,0.00000423,0.00000543,0.00
 000542,0.00000764,-0.00007512,-0.00004394,0.00007477,0.00016238,0.0000
 2629,-0.00009937,-0.00002221,-0.00005021,-0.00000718,-0.00002664,0.000
 43095,0.00004233,0.00001158,0.00003350,-0.00007243,0.00026519,-0.00015
 356,0.00024102,-0.00004248,-0.00006822,-0.00002231,0.00001583,0.000006
 07,-0.00000687,0.00000855,-0.00000435,-0.00000164,-0.00000129,0.000004
 51,-0.00000477,-0.00000385,-0.00000336,0.00000562,-0.00000062,-0.00000
 316,0.00000151,0.00000942,-0.00000424,-0.00000363,-0.00020639,0.000037
 46,-0.00000659,-0.00140975,-0.00217730,-0.00082567,0.01575398,-0.00752
 659,-0.00902782,0.00263975,0.00495910,-0.00019603,-0.00078376,0.000453
 31,-0.00024812,0.00189861,0.00226070,0.00343880,-0.00304370,0.00289240
 ,0.00595136,0.14120095,-0.04430899,-0.17554002,-0.00000118,0.00000224,
 -0.00000198,0.00000103,-0.00000108,-0.00000078,0.00000122,-0.00000047,
 -0.00000093,-0.00000069,0.00000083,-0.00000084,-0.00000851,-0.00000217
 ,-0.00000855,0.00000222,0.00000095,0.00003402,-0.00002027,0.00000680,-
 0.00000994,0.00005450,0.00003621,-0.00000758,-0.00000136,-0.00000137,0
 .00000179,0.00000204,-0.00000221,0.00000295,0.00000116,-0.00000185,0.0
 0000002,-0.00000163,0.00000135,-0.00000079,0.00000064,-0.00000185,0.00
 000017,-0.00000090,0.00000125,0.00000010,-0.00000227,-0.00000101,-0.00
 000064,0.00000185,-0.00000209,0.00000054,-0.00009173,0.00072304,-0.000
 18154,0.00075253,-0.00039573,-0.00053361,-0.00036458,-0.00033743,-0.00
 035276,-0.00014881,0.00014385,0.00014141,-0.00180064,-0.00147935,-0.00
 115359,-0.15463089,0.04449600,0.17844413\\0.00000317,-0.00000184,-0.00
 000276,0.00000006,-0.00000131,0.00000040,-0.00000054,0.00000051,-0.000
 00399,0.00000104,-0.00000204,-0.00000117,-0.00000037,-0.00000154,-0.00
 000204,-0.00000069,-0.00000195,-0.00000452,-0.00000041,-0.00000228,-0.
 00000428,0.00000047,-0.00000186,-0.00000316,0.00000030,-0.00000197,-0.
 00000327,0.00000174,-0.00000130,0.00000078,0.00000160,-0.00000011,-0.0
 0000160,0.00000276,-0.00000112,0.00000252,0.00000024,-0.00000187,0.000
 00188,0.00000268,-0.00000036,0.00000198,0.00000068,-0.00000040,-0.0000
 0315,-0.00000890,0.00000156,-0.00000307,-0.00000038,-0.00000085,0.0000
 0100,-0.00000338,0.00000089,0.00000026,-0.00000156,0.00000117,-0.00000
 238,-0.00000221,0.00000227,-0.00000150,-0.00000057,0.00000002,0.000000
 71,0.00000110,0.00000070,-0.00000080,-0.00000085,0.00000188,0.00000241
 ,-0.00000024,0.00000072,0.00000386,0.00000039,0.00000126,0.00000332,0.
 00000151,0.00000116,0.00000368,0.00000158,0.00000138,0.00000460,0.0000
 0102,0.00000183,0.00000466,0.00000034,0.00000192,0.00000385,-0.0000009
 6,0.00000091,0.00000198,-0.00000130,-0.00000155,-0.00000369,-0.0000013
 0,-0.00000186,-0.00000527,-0.00000051,-0.00000251,-0.00000504,0.000000
 92,-0.00000252,-0.00000315,0.00000117,-0.00000158,-0.00000130,0.000002
 32,-0.00000104,0.00000163,0.00000313,-0.00000206,0.00000249,0.00000258
 ,0.00000023,0.00000231,-0.00000198,0.00000250,-0.00000142,-0.00000009,
 0.00000166,0.00000093,-0.00000444,0.00000109,-0.00000136,-0.00000233,0
 .00000036,-0.00000370,-0.00000132,-0.00000075,-0.00000209,-0.00000068,
 0.00000095,-0.00000272,-0.00000018,0.00000085,0.00000175,0.00000169,-0
 .00000007,-0.00000037,-0.00000140,0.00000053,0.00000073,0.00000115,0.0
 0000096,0.00000294,0.00000214,0.00000131,0.00000533,0.00000147,0.00000
 211,0.00000576,-0.00000003,0.00000230,0.00000412,-0.00000064,0.0000017
 4,0.00000193\\\@
 The archive entry for this job was punched.


 ON A TOMBSTONE, "HERE LIES LESTER MOORE,
 FOUR SLUGS FROM A 44, NO LES, NO MORE".
 Job cpu time:       0 days  9 hours 38 minutes 42.9 seconds.
 Elapsed time:       0 days  0 hours 36 minutes 12.3 seconds.
 File lengths (MBytes):  RWF=   1782 Int=      0 D2E=      0 Chk=     45 Scr=      1
 Normal termination of Gaussian 16 at Tue Sep 26 17:13:44 2023.
