 Entering Gaussian System, Link 0=g16
 Input=sts2-TSx45.com
 Output=sts2-TSx45.log
 Initial command:
 /usr/local/Gaussian2/g16/l1.exe "/tmp/jtg3/4843/Gau-28738.inp" -scrdir="/tmp/jtg3/4843/"
 Entering Link 1 = /usr/local/Gaussian2/g16/l1.exe PID=     28740.
  
 Copyright (c) 1988-2019, Gaussian, Inc.  All Rights Reserved.
  
 This is part of the Gaussian(R) 16 program.  It is based on
 the Gaussian(R) 09 system (copyright 2009, Gaussian, Inc.),
 the Gaussian(R) 03 system (copyright 2003, Gaussian, Inc.),
 the Gaussian(R) 98 system (copyright 1998, Gaussian, Inc.),
 the Gaussian(R) 94 system (copyright 1995, Gaussian, Inc.),
 the Gaussian 92(TM) system (copyright 1992, Gaussian, Inc.),
 the Gaussian 90(TM) system (copyright 1990, Gaussian, Inc.),
 the Gaussian 88(TM) system (copyright 1988, Gaussian, Inc.),
 the Gaussian 86(TM) system (copyright 1986, Carnegie Mellon
 University), and the Gaussian 82(TM) system (copyright 1983,
 Carnegie Mellon University). Gaussian is a federally registered
 trademark of Gaussian, Inc.
  
 This software contains proprietary and confidential information,
 including trade secrets, belonging to Gaussian, Inc.
  
 This software is provided under written license and may be
 used, copied, transmitted, or stored only in accord with that
 written license.
  
 The following legend is applicable only to US Government
 contracts under FAR:
  
                    RESTRICTED RIGHTS LEGEND
  
 Use, reproduction and disclosure by the US Government is
 subject to restrictions as set forth in subparagraphs (a)
 and (c) of the Commercial Computer Software - Restricted
 Rights clause in FAR 52.227-19.
  
 Gaussian, Inc.
 340 Quinnipiac St., Bldg. 40, Wallingford CT 06492
  
  
 ---------------------------------------------------------------
 Warning -- This program may not be used in any manner that
 competes with the business of Gaussian, Inc. or will provide
 assistance to any competitor of Gaussian, Inc.  The licensee
 of this program is prohibited from giving any competitor of
 Gaussian, Inc. access to this program.  By using this program,
 the user acknowledges that Gaussian, Inc. is engaged in the
 business of creating and licensing software in the field of
 computational chemistry and represents and warrants to the
 licensee that it is not a competitor of Gaussian, Inc. and that
 it will not use this program in any manner prohibited above.
 ---------------------------------------------------------------
  

 Cite this work as:
 Gaussian 16, Revision C.01,
 M. J. Frisch, G. W. Trucks, H. B. Schlegel, G. E. Scuseria, 
 M. A. Robb, J. R. Cheeseman, G. Scalmani, V. Barone, 
 G. A. Petersson, H. Nakatsuji, X. Li, M. Caricato, A. V. Marenich, 
 J. Bloino, B. G. Janesko, R. Gomperts, B. Mennucci, H. P. Hratchian, 
 J. V. Ortiz, A. F. Izmaylov, J. L. Sonnenberg, D. Williams-Young, 
 F. Ding, F. Lipparini, F. Egidi, J. Goings, B. Peng, A. Petrone, 
 T. Henderson, D. Ranasinghe, V. G. Zakrzewski, J. Gao, N. Rega, 
 G. Zheng, W. Liang, M. Hada, M. Ehara, K. Toyota, R. Fukuda, 
 J. Hasegawa, M. Ishida, T. Nakajima, Y. Honda, O. Kitao, H. Nakai, 
 T. Vreven, K. Throssell, J. A. Montgomery, Jr., J. E. Peralta, 
 F. Ogliaro, M. J. Bearpark, J. J. Heyd, E. N. Brothers, K. N. Kudin, 
 V. N. Staroverov, T. A. Keith, R. Kobayashi, J. Normand, 
 K. Raghavachari, A. P. Rendell, J. C. Burant, S. S. Iyengar, 
 J. Tomasi, M. Cossi, J. M. Millam, M. Klene, C. Adamo, R. Cammi, 
 J. W. Ochterski, R. L. Martin, K. Morokuma, O. Farkas, 
 J. B. Foresman, and D. J. Fox, Gaussian, Inc., Wallingford CT, 2019.
 
 ******************************************
 Gaussian 16:  ES64L-G16RevC.01  3-Jul-2019
                26-Jun-2024 
 ******************************************
 %NProc=16
 Will use up to   16 processors via shared memory.
 %mem=16GB
 %chk=sts2-TSx45.chk
 ---------------------------------------------------------------------
 #P RM062X/gen opt=(TS,CalcFC,NoEigentest) freq scrf=(smd,solvent=THF)
 ---------------------------------------------------------------------
 1/5=1,10=4,11=1,18=20,26=3,38=1/1,3;
 2/9=110,12=2,17=6,18=5,40=1/2;
 3/5=7,11=2,25=1,30=1,70=32201,71=2,72=20,74=-55,116=1,140=1/1,2,3;
 4//1;
 5/5=2,38=5,53=20/2;
 8/6=4,10=90,11=11/1;
 11/6=1,8=1,9=11,15=111,16=1/1,2,10;
 10/6=1,13=1/2;
 6/7=2,8=2,9=2,10=2,28=1/1;
 7/10=1,25=1/1,2,3,16;
 1/5=1,10=4,11=1,18=20,26=3/3(2);
 2/9=110/2;
 99//99;
 2/9=110/2;
 3/5=7,6=1,11=2,25=1,30=1,70=32205,71=1,72=20,74=-55,82=7,116=1/1,2,3;
 4/5=5,16=3,69=1/1;
 5/5=2,38=5,53=20/2;
 7//1,2,3,16;
 1/5=1,11=1,18=20,26=3/3(-5);
 2/9=110/2;
 6/7=2,8=2,9=2,10=2,19=2,28=1/1;
 99/9=1/99;
 Leave Link    1 at Wed Jun 26 11:00:01 2024, MaxMem=  2147483648 cpu:               0.7 elap:               0.1
 (Enter /usr/local/Gaussian2/g16/l101.exe)
 --------------------------
 sts2-TSx45 ; M062X/def2SVP
 --------------------------
 Symbolic Z-matrix:
 Charge =  0 Multiplicity = 1
 C                    -6.25996   1.91544  -0.1509 
 C                    -6.69405   0.74721   0.48999 
 C                    -5.7817   -0.13206   1.06498 
 C                    -4.42537   0.17518   0.96236 
 C                    -3.99593   1.3275    0.30177 
 H                    -7.76019   0.52429   0.54359 
 H                    -6.11384  -1.041     1.56899 
 C                    -1.96671   0.41247   0.89977 
 C                     0.209     1.40622   0.40011 
 C                    -0.51561   2.04106  -0.79744 
 C                    -1.89774   2.51427  -0.39165 
 H                    -2.48258   2.79409  -1.27762 
 S                    -3.0705   -0.75648   1.57416 
 N                    -2.59944   1.41752   0.27665 
 N                    -0.63078   0.33811   0.97854 
 C                     0.31517   3.13198  -1.51139 
 C                     0.10855   4.54572  -0.9618 
 H                    -0.89736   4.92106  -1.20813 
 H                     0.24013   4.6059    0.12779 
 H                     0.83319   5.23075  -1.42525 
 H                    -0.65863   1.21222  -1.51205 
 H                     1.08123   0.90153  -0.026 
 C                     0.68397   2.37797   1.45904 
 C                     2.00664   2.83131   1.41581 
 C                    -0.17679   2.87507   2.44341 
 C                     2.45427   3.79372   2.31927 
 H                     2.69009   2.42388   0.66539 
 C                     0.27118   3.8366    3.34927 
 H                    -1.20549   2.51233   2.51643 
 C                     1.58427   4.30379   3.28359 
 H                     3.48785   4.14067   2.27443 
 H                    -0.40877   4.21928   4.1122 
 H                     1.93349   5.05569   3.99316 
 C                     1.40395  -0.85668   1.67225 
 H                     2.04063  -0.07645   1.26622 
 C                     1.99075  -2.03793   2.13282 
 C                     3.41676  -1.93748   2.60509 
 F                     4.19873  -1.28229   1.74438 
 F                     3.46996  -1.26706   3.76474 
 F                     3.9766   -3.12818   2.83197 
 O                    -0.77732  -1.66688   2.05734 
 C                    -0.01465  -0.81166   1.61947 
 H                    -1.86131   3.37638   0.29157 
 C                    -4.90778   2.226    -0.25313 
 H                    -4.57953   3.13641  -0.75389 
 H                    -6.9941    2.59472  -0.58582 
 H                     1.38301  -2.69151   2.76214 
 S                     2.30769  -3.59623   0.51824 
 C                     1.20963  -2.78935  -0.60273 
 N                    -0.0781   -3.2868   -0.51741 
 H                    -0.15947  -4.07343   0.11914 
 C                    -1.28615  -2.77886  -0.96009 
 C                    -1.43825  -1.59184  -1.70601 
 C                    -2.4432   -3.5037   -0.59307 
 C                    -2.71011  -1.12189  -2.01311 
 H                    -0.55692  -1.04903  -2.0313 
 C                    -3.70672  -3.04714  -0.91653 
 H                    -2.33082  -4.43055  -0.0274 
 C                    -3.8297   -1.84257  -1.61022 
 H                    -2.83821  -0.19354  -2.57059 
 H                    -4.59779  -3.59885  -0.61996 
 N                    -5.16208  -1.31199  -1.89229 
 O                    -5.2403   -0.22573  -2.42268 
 O                    -6.11895  -1.98518  -1.57757 
 N                     1.43837  -1.77923  -1.36574 
 C                     2.64666  -1.14821  -1.61085 
 C                     2.55435   0.19189  -2.05247 
 C                     3.92973  -1.73363  -1.53926 
 C                     3.67889   0.94598  -2.34408 
 H                     1.56027   0.6234   -2.18016 
 C                     5.06324  -0.99003  -1.84101 
 H                     4.03746  -2.77465  -1.24804 
 C                     4.92929   0.34243  -2.22239 
 H                     3.60012   1.98108  -2.67521 
 H                     6.05475  -1.43725  -1.7835 
 N                     6.12891   1.12346  -2.52944 
 O                     5.98216   2.2803   -2.858 
 O                     7.20356   0.57377  -2.43856 
 H                     1.37588   2.8631   -1.36857 
 C                     0.02747   3.10723  -3.01256 
 H                    -1.03943   3.2982   -3.21146 
 H                     0.60655   3.884    -3.53298 
 H                     0.28577   2.13449  -3.45745 
 
 Add virtual bond connecting atoms S48        and C36        Dist= 4.28D+00.
 Add virtual bond connecting atoms H56        and H21        Dist= 4.39D+00.
 Add virtual bond connecting atoms H70        and H22        Dist= 4.20D+00.
 Add virtual bond connecting atoms H70        and H83        Dist= 4.45D+00.
 ITRead=  0  0  0  0  0  0  0  0  0  0  0  0  0  0  0  0  0  0  0  0
 ITRead=  0  0  0  0  0  0  0  0  0  0  0  0  0  0  0  0  0  0  0  0
 ITRead=  0  0  0  0  0  0  0  0  0  0  0  0  0  0  0  0  0  0  0  0
 ITRead=  0  0  0  0  0  0  0  0  0  0  0  0  0  0  0  0  0  0  0  0
 ITRead=  0  0  0
 MicOpt= -1 -1 -1 -1 -1 -1 -1 -1 -1 -1 -1 -1 -1 -1 -1 -1 -1 -1 -1 -1
 MicOpt= -1 -1 -1 -1 -1 -1 -1 -1 -1 -1 -1 -1 -1 -1 -1 -1 -1 -1 -1 -1
 MicOpt= -1 -1 -1 -1 -1 -1 -1 -1 -1 -1 -1 -1 -1 -1 -1 -1 -1 -1 -1 -1
 MicOpt= -1 -1 -1 -1 -1 -1 -1 -1 -1 -1 -1 -1 -1 -1 -1 -1 -1 -1 -1 -1
 MicOpt= -1 -1 -1
 NAtoms=     83 NQM=       83 NQMF=       0 NMMI=      0 NMMIF=      0
                NMic=       0 NMicF=      0.
                    Isotopes and Nuclear Properties:
 (Nuclear quadrupole moments (NQMom) in fm**2, nuclear magnetic moments (NMagM)
  in nuclear magnetons)

  Atom         1           2           3           4           5           6           7           8           9          10
 IAtWgt=          12          12          12          12          12           1           1          12          12          12
 AtmWgt=  12.0000000  12.0000000  12.0000000  12.0000000  12.0000000   1.0078250   1.0078250  12.0000000  12.0000000  12.0000000
 NucSpn=           0           0           0           0           0           1           1           0           0           0
 AtZEff=   0.0000000   0.0000000   0.0000000   0.0000000   0.0000000   0.0000000   0.0000000   0.0000000   0.0000000   0.0000000
 NQMom=    0.0000000   0.0000000   0.0000000   0.0000000   0.0000000   0.0000000   0.0000000   0.0000000   0.0000000   0.0000000
 NMagM=    0.0000000   0.0000000   0.0000000   0.0000000   0.0000000   2.7928460   2.7928460   0.0000000   0.0000000   0.0000000
 AtZNuc=   6.0000000   6.0000000   6.0000000   6.0000000   6.0000000   1.0000000   1.0000000   6.0000000   6.0000000   6.0000000

  Atom        11          12          13          14          15          16          17          18          19          20
 IAtWgt=          12           1          32          14          14          12          12           1           1           1
 AtmWgt=  12.0000000   1.0078250  31.9720718  14.0030740  14.0030740  12.0000000  12.0000000   1.0078250   1.0078250   1.0078250
 NucSpn=           0           1           0           2           2           0           0           1           1           1
 AtZEff=   0.0000000   0.0000000   0.0000000   0.0000000   0.0000000   0.0000000   0.0000000   0.0000000   0.0000000   0.0000000
 NQMom=    0.0000000   0.0000000   0.0000000   2.0440000   2.0440000   0.0000000   0.0000000   0.0000000   0.0000000   0.0000000
 NMagM=    0.0000000   2.7928460   0.0000000   0.4037610   0.4037610   0.0000000   0.0000000   2.7928460   2.7928460   2.7928460
 AtZNuc=   6.0000000   1.0000000  16.0000000   7.0000000   7.0000000   6.0000000   6.0000000   1.0000000   1.0000000   1.0000000

  Atom        21          22          23          24          25          26          27          28          29          30
 IAtWgt=           1           1          12          12          12          12           1          12           1          12
 AtmWgt=   1.0078250   1.0078250  12.0000000  12.0000000  12.0000000  12.0000000   1.0078250  12.0000000   1.0078250  12.0000000
 NucSpn=           1           1           0           0           0           0           1           0           1           0
 AtZEff=   0.0000000   0.0000000   0.0000000   0.0000000   0.0000000   0.0000000   0.0000000   0.0000000   0.0000000   0.0000000
 NQMom=    0.0000000   0.0000000   0.0000000   0.0000000   0.0000000   0.0000000   0.0000000   0.0000000   0.0000000   0.0000000
 NMagM=    2.7928460   2.7928460   0.0000000   0.0000000   0.0000000   0.0000000   2.7928460   0.0000000   2.7928460   0.0000000
 AtZNuc=   1.0000000   1.0000000   6.0000000   6.0000000   6.0000000   6.0000000   1.0000000   6.0000000   1.0000000   6.0000000

  Atom        31          32          33          34          35          36          37          38          39          40
 IAtWgt=           1           1           1          12           1          12          12          19          19          19
 AtmWgt=   1.0078250   1.0078250   1.0078250  12.0000000   1.0078250  12.0000000  12.0000000  18.9984032  18.9984032  18.9984032
 NucSpn=           1           1           1           0           1           0           0           1           1           1
 AtZEff=   0.0000000   0.0000000   0.0000000   0.0000000   0.0000000   0.0000000   0.0000000   0.0000000   0.0000000   0.0000000
 NQMom=    0.0000000   0.0000000   0.0000000   0.0000000   0.0000000   0.0000000   0.0000000   0.0000000   0.0000000   0.0000000
 NMagM=    2.7928460   2.7928460   2.7928460   0.0000000   2.7928460   0.0000000   0.0000000   2.6288670   2.6288670   2.6288670
 AtZNuc=   1.0000000   1.0000000   1.0000000   6.0000000   1.0000000   6.0000000   6.0000000   9.0000000   9.0000000   9.0000000

  Atom        41          42          43          44          45          46          47          48          49          50
 IAtWgt=          16          12           1          12           1           1           1          32          12          14
 AtmWgt=  15.9949146  12.0000000   1.0078250  12.0000000   1.0078250   1.0078250   1.0078250  31.9720718  12.0000000  14.0030740
 NucSpn=           0           0           1           0           1           1           1           0           0           2
 AtZEff=   0.0000000   0.0000000   0.0000000   0.0000000   0.0000000   0.0000000   0.0000000   0.0000000   0.0000000   0.0000000
 NQMom=    0.0000000   0.0000000   0.0000000   0.0000000   0.0000000   0.0000000   0.0000000   0.0000000   0.0000000   2.0440000
 NMagM=    0.0000000   0.0000000   2.7928460   0.0000000   2.7928460   2.7928460   2.7928460   0.0000000   0.0000000   0.4037610
 AtZNuc=   8.0000000   6.0000000   1.0000000   6.0000000   1.0000000   1.0000000   1.0000000  16.0000000   6.0000000   7.0000000

  Atom        51          52          53          54          55          56          57          58          59          60
 IAtWgt=           1          12          12          12          12           1          12           1          12           1
 AtmWgt=   1.0078250  12.0000000  12.0000000  12.0000000  12.0000000   1.0078250  12.0000000   1.0078250  12.0000000   1.0078250
 NucSpn=           1           0           0           0           0           1           0           1           0           1
 AtZEff=   0.0000000   0.0000000   0.0000000   0.0000000   0.0000000   0.0000000   0.0000000   0.0000000   0.0000000   0.0000000
 NQMom=    0.0000000   0.0000000   0.0000000   0.0000000   0.0000000   0.0000000   0.0000000   0.0000000   0.0000000   0.0000000
 NMagM=    2.7928460   0.0000000   0.0000000   0.0000000   0.0000000   2.7928460   0.0000000   2.7928460   0.0000000   2.7928460
 AtZNuc=   1.0000000   6.0000000   6.0000000   6.0000000   6.0000000   1.0000000   6.0000000   1.0000000   6.0000000   1.0000000

  Atom        61          62          63          64          65          66          67          68          69          70
 IAtWgt=           1          14          16          16          14          12          12          12          12           1
 AtmWgt=   1.0078250  14.0030740  15.9949146  15.9949146  14.0030740  12.0000000  12.0000000  12.0000000  12.0000000   1.0078250
 NucSpn=           1           2           0           0           2           0           0           0           0           1
 AtZEff=   0.0000000   0.0000000   0.0000000   0.0000000   0.0000000   0.0000000   0.0000000   0.0000000   0.0000000   0.0000000
 NQMom=    0.0000000   2.0440000   0.0000000   0.0000000   2.0440000   0.0000000   0.0000000   0.0000000   0.0000000   0.0000000
 NMagM=    2.7928460   0.4037610   0.0000000   0.0000000   0.4037610   0.0000000   0.0000000   0.0000000   0.0000000   2.7928460
 AtZNuc=   1.0000000   7.0000000   8.0000000   8.0000000   7.0000000   6.0000000   6.0000000   6.0000000   6.0000000   1.0000000

  Atom        71          72          73          74          75          76          77          78          79          80
 IAtWgt=          12           1          12           1           1          14          16          16           1          12
 AtmWgt=  12.0000000   1.0078250  12.0000000   1.0078250   1.0078250  14.0030740  15.9949146  15.9949146   1.0078250  12.0000000
 NucSpn=           0           1           0           1           1           2           0           0           1           0
 AtZEff=   0.0000000   0.0000000   0.0000000   0.0000000   0.0000000   0.0000000   0.0000000   0.0000000   0.0000000   0.0000000
 NQMom=    0.0000000   0.0000000   0.0000000   0.0000000   0.0000000   2.0440000   0.0000000   0.0000000   0.0000000   0.0000000
 NMagM=    0.0000000   2.7928460   0.0000000   2.7928460   2.7928460   0.4037610   0.0000000   0.0000000   2.7928460   0.0000000
 AtZNuc=   6.0000000   1.0000000   6.0000000   1.0000000   1.0000000   7.0000000   8.0000000   8.0000000   1.0000000   6.0000000

  Atom        81          82          83
 IAtWgt=           1           1           1
 AtmWgt=   1.0078250   1.0078250   1.0078250
 NucSpn=           1           1           1
 AtZEff=   0.0000000   0.0000000   0.0000000
 NQMom=    0.0000000   0.0000000   0.0000000
 NMagM=    2.7928460   2.7928460   2.7928460
 AtZNuc=   1.0000000   1.0000000   1.0000000
 Leave Link  101 at Wed Jun 26 11:00:01 2024, MaxMem=  2147483648 cpu:               3.0 elap:               0.2
 (Enter /usr/local/Gaussian2/g16/l103.exe)

 GradGradGradGradGradGradGradGradGradGradGradGradGradGradGradGradGradGrad
 Berny optimization.
 Initialization pass.
                           ----------------------------
                           !    Initial Parameters    !
                           ! (Angstroms and Degrees)  !
 --------------------------                            --------------------------
 ! Name  Definition              Value          Derivative Info.                !
 --------------------------------------------------------------------------------
 ! R1    R(1,2)                  1.4014         calculate D2E/DX2 analytically  !
 ! R2    R(1,44)                 1.3911         calculate D2E/DX2 analytically  !
 ! R3    R(1,46)                 1.0907         calculate D2E/DX2 analytically  !
 ! R4    R(2,3)                  1.3914         calculate D2E/DX2 analytically  !
 ! R5    R(2,6)                  1.0905         calculate D2E/DX2 analytically  !
 ! R6    R(3,4)                  1.3945         calculate D2E/DX2 analytically  !
 ! R7    R(3,7)                  1.0911         calculate D2E/DX2 analytically  !
 ! R8    R(4,5)                  1.3959         calculate D2E/DX2 analytically  !
 ! R9    R(4,13)                 1.7544         calculate D2E/DX2 analytically  !
 ! R10   R(5,14)                 1.3996         calculate D2E/DX2 analytically  !
 ! R11   R(5,44)                 1.3952         calculate D2E/DX2 analytically  !
 ! R12   R(8,13)                 1.7434         calculate D2E/DX2 analytically  !
 ! R13   R(8,14)                 1.3412         calculate D2E/DX2 analytically  !
 ! R14   R(8,15)                 1.3403         calculate D2E/DX2 analytically  !
 ! R15   R(9,10)                 1.5369         calculate D2E/DX2 analytically  !
 ! R16   R(9,15)                 1.4767         calculate D2E/DX2 analytically  !
 ! R17   R(9,22)                 1.0941         calculate D2E/DX2 analytically  !
 ! R18   R(9,23)                 1.5137         calculate D2E/DX2 analytically  !
 ! R19   R(10,11)                1.5162         calculate D2E/DX2 analytically  !
 ! R20   R(10,16)                1.546          calculate D2E/DX2 analytically  !
 ! R21   R(10,21)                1.1037         calculate D2E/DX2 analytically  !
 ! R22   R(11,12)                1.0978         calculate D2E/DX2 analytically  !
 ! R23   R(11,14)                1.4635         calculate D2E/DX2 analytically  !
 ! R24   R(11,43)                1.1006         calculate D2E/DX2 analytically  !
 ! R25   R(15,42)                1.4534         calculate D2E/DX2 analytically  !
 ! R26   R(16,17)                1.5308         calculate D2E/DX2 analytically  !
 ! R27   R(16,79)                1.1035         calculate D2E/DX2 analytically  !
 ! R28   R(16,80)                1.5287         calculate D2E/DX2 analytically  !
 ! R29   R(17,18)                1.1015         calculate D2E/DX2 analytically  !
 ! R30   R(17,19)                1.0992         calculate D2E/DX2 analytically  !
 ! R31   R(17,20)                1.0996         calculate D2E/DX2 analytically  !
 ! R32   R(21,56)                2.3223         calculate D2E/DX2 analytically  !
 ! R33   R(22,70)                2.2242         calculate D2E/DX2 analytically  !
 ! R34   R(23,24)                1.3989         calculate D2E/DX2 analytically  !
 ! R35   R(23,25)                1.3989         calculate D2E/DX2 analytically  !
 ! R36   R(24,26)                1.3939         calculate D2E/DX2 analytically  !
 ! R37   R(24,27)                1.0937         calculate D2E/DX2 analytically  !
 ! R38   R(25,28)                1.3949         calculate D2E/DX2 analytically  !
 ! R39   R(25,29)                1.0932         calculate D2E/DX2 analytically  !
 ! R40   R(26,30)                1.3953         calculate D2E/DX2 analytically  !
 ! R41   R(26,31)                1.0912         calculate D2E/DX2 analytically  !
 ! R42   R(28,30)                1.3953         calculate D2E/DX2 analytically  !
 ! R43   R(28,32)                1.0913         calculate D2E/DX2 analytically  !
 ! R44   R(30,33)                1.0912         calculate D2E/DX2 analytically  !
 ! R45   R(34,35)                1.0858         calculate D2E/DX2 analytically  !
 ! R46   R(34,36)                1.3971         calculate D2E/DX2 analytically  !
 ! R47   R(34,42)                1.4203         calculate D2E/DX2 analytically  !
 ! R48   R(36,37)                1.5055         calculate D2E/DX2 analytically  !
 ! R49   R(36,47)                1.092          calculate D2E/DX2 analytically  !
 ! R50   R(36,48)                2.2662         calculate D2E/DX2 analytically  !
 ! R51   R(37,38)                1.3348         calculate D2E/DX2 analytically  !
 ! R52   R(37,39)                1.3406         calculate D2E/DX2 analytically  !
 ! R53   R(37,40)                1.3352         calculate D2E/DX2 analytically  !
 ! R54   R(41,42)                1.2267         calculate D2E/DX2 analytically  !
 ! R55   R(44,45)                1.0897         calculate D2E/DX2 analytically  !
 ! R56   R(48,49)                1.7645         calculate D2E/DX2 analytically  !
 ! R57   R(49,50)                1.3831         calculate D2E/DX2 analytically  !
 ! R58   R(49,65)                1.2864         calculate D2E/DX2 analytically  !
 ! R59   R(50,51)                1.0152         calculate D2E/DX2 analytically  !
 ! R60   R(50,52)                1.3832         calculate D2E/DX2 analytically  !
 ! R61   R(52,53)                1.4102         calculate D2E/DX2 analytically  !
 ! R62   R(52,54)                1.4138         calculate D2E/DX2 analytically  !
 ! R63   R(53,55)                1.3902         calculate D2E/DX2 analytically  !
 ! R64   R(53,56)                1.085          calculate D2E/DX2 analytically  !
 ! R65   R(54,57)                1.3819         calculate D2E/DX2 analytically  !
 ! R66   R(54,58)                1.0916         calculate D2E/DX2 analytically  !
 ! R67   R(55,59)                1.3911         calculate D2E/DX2 analytically  !
 ! R68   R(55,60)                1.0904         calculate D2E/DX2 analytically  !
 ! R69   R(57,59)                1.3955         calculate D2E/DX2 analytically  !
 ! R70   R(57,61)                1.0892         calculate D2E/DX2 analytically  !
 ! R71   R(59,62)                1.4616         calculate D2E/DX2 analytically  !
 ! R72   R(62,63)                1.2114         calculate D2E/DX2 analytically  !
 ! R73   R(62,64)                1.2115         calculate D2E/DX2 analytically  !
 ! R74   R(65,66)                1.385          calculate D2E/DX2 analytically  !
 ! R75   R(66,67)                1.414          calculate D2E/DX2 analytically  !
 ! R76   R(66,68)                1.4121         calculate D2E/DX2 analytically  !
 ! R77   R(67,69)                1.385          calculate D2E/DX2 analytically  !
 ! R78   R(67,70)                1.0912         calculate D2E/DX2 analytically  !
 ! R79   R(68,71)                1.3888         calculate D2E/DX2 analytically  !
 ! R80   R(68,72)                1.0863         calculate D2E/DX2 analytically  !
 ! R81   R(69,73)                1.3938         calculate D2E/DX2 analytically  !
 ! R82   R(69,74)                1.0896         calculate D2E/DX2 analytically  !
 ! R83   R(70,83)                2.3536         calculate D2E/DX2 analytically  !
 ! R84   R(71,73)                1.3924         calculate D2E/DX2 analytically  !
 ! R85   R(71,75)                1.0892         calculate D2E/DX2 analytically  !
 ! R86   R(73,76)                1.464          calculate D2E/DX2 analytically  !
 ! R87   R(76,77)                1.2115         calculate D2E/DX2 analytically  !
 ! R88   R(76,78)                1.2105         calculate D2E/DX2 analytically  !
 ! R89   R(80,81)                1.1019         calculate D2E/DX2 analytically  !
 ! R90   R(80,82)                1.0998         calculate D2E/DX2 analytically  !
 ! R91   R(80,83)                1.1004         calculate D2E/DX2 analytically  !
 ! A1    A(2,1,44)             121.3847         calculate D2E/DX2 analytically  !
 ! A2    A(2,1,46)             119.541          calculate D2E/DX2 analytically  !
 ! A3    A(44,1,46)            119.073          calculate D2E/DX2 analytically  !
 ! A4    A(1,2,3)              120.8401         calculate D2E/DX2 analytically  !
 ! A5    A(1,2,6)              119.717          calculate D2E/DX2 analytically  !
 ! A6    A(3,2,6)              119.4424         calculate D2E/DX2 analytically  !
 ! A7    A(2,3,4)              117.9119         calculate D2E/DX2 analytically  !
 ! A8    A(2,3,7)              121.1776         calculate D2E/DX2 analytically  !
 ! A9    A(4,3,7)              120.9053         calculate D2E/DX2 analytically  !
 ! A10   A(3,4,5)              121.0593         calculate D2E/DX2 analytically  !
 ! A11   A(3,4,13)             127.479          calculate D2E/DX2 analytically  !
 ! A12   A(5,4,13)             111.4574         calculate D2E/DX2 analytically  !
 ! A13   A(4,5,14)             111.6255         calculate D2E/DX2 analytically  !
 ! A14   A(4,5,44)             121.2476         calculate D2E/DX2 analytically  !
 ! A15   A(14,5,44)            127.1233         calculate D2E/DX2 analytically  !
 ! A16   A(13,8,14)            112.5494         calculate D2E/DX2 analytically  !
 ! A17   A(13,8,15)            124.8275         calculate D2E/DX2 analytically  !
 ! A18   A(14,8,15)            122.623          calculate D2E/DX2 analytically  !
 ! A19   A(10,9,15)            109.6243         calculate D2E/DX2 analytically  !
 ! A20   A(10,9,22)            105.2439         calculate D2E/DX2 analytically  !
 ! A21   A(10,9,23)            115.3314         calculate D2E/DX2 analytically  !
 ! A22   A(15,9,22)            105.7993         calculate D2E/DX2 analytically  !
 ! A23   A(15,9,23)            111.6395         calculate D2E/DX2 analytically  !
 ! A24   A(22,9,23)            108.5686         calculate D2E/DX2 analytically  !
 ! A25   A(9,10,11)            110.4968         calculate D2E/DX2 analytically  !
 ! A26   A(9,10,16)            113.4499         calculate D2E/DX2 analytically  !
 ! A27   A(9,10,21)            104.7975         calculate D2E/DX2 analytically  !
 ! A28   A(11,10,16)           113.1552         calculate D2E/DX2 analytically  !
 ! A29   A(11,10,21)           106.8309         calculate D2E/DX2 analytically  !
 ! A30   A(16,10,21)           107.4907         calculate D2E/DX2 analytically  !
 ! A31   A(10,11,12)           110.4366         calculate D2E/DX2 analytically  !
 ! A32   A(10,11,14)           108.9892         calculate D2E/DX2 analytically  !
 ! A33   A(10,11,43)           112.3605         calculate D2E/DX2 analytically  !
 ! A34   A(12,11,14)           107.7043         calculate D2E/DX2 analytically  !
 ! A35   A(12,11,43)           108.5991         calculate D2E/DX2 analytically  !
 ! A36   A(14,11,43)           108.6269         calculate D2E/DX2 analytically  !
 ! A37   A(4,13,8)              89.8844         calculate D2E/DX2 analytically  !
 ! A38   A(5,14,8)             114.4678         calculate D2E/DX2 analytically  !
 ! A39   A(5,14,11)            122.3296         calculate D2E/DX2 analytically  !
 ! A40   A(8,14,11)            123.1986         calculate D2E/DX2 analytically  !
 ! A41   A(8,15,9)             120.2435         calculate D2E/DX2 analytically  !
 ! A42   A(8,15,42)            119.4945         calculate D2E/DX2 analytically  !
 ! A43   A(9,15,42)            120.2554         calculate D2E/DX2 analytically  !
 ! A44   A(10,16,17)           114.4158         calculate D2E/DX2 analytically  !
 ! A45   A(10,16,79)           106.5486         calculate D2E/DX2 analytically  !
 ! A46   A(10,16,80)           109.9341         calculate D2E/DX2 analytically  !
 ! A47   A(17,16,79)           107.9561         calculate D2E/DX2 analytically  !
 ! A48   A(17,16,80)           110.0051         calculate D2E/DX2 analytically  !
 ! A49   A(79,16,80)           107.7004         calculate D2E/DX2 analytically  !
 ! A50   A(16,17,18)           110.9555         calculate D2E/DX2 analytically  !
 ! A51   A(16,17,19)           112.973          calculate D2E/DX2 analytically  !
 ! A52   A(16,17,20)           109.5762         calculate D2E/DX2 analytically  !
 ! A53   A(18,17,19)           108.2003         calculate D2E/DX2 analytically  !
 ! A54   A(18,17,20)           107.1735         calculate D2E/DX2 analytically  !
 ! A55   A(19,17,20)           107.7464         calculate D2E/DX2 analytically  !
 ! A56   A(10,21,56)           150.4963         calculate D2E/DX2 analytically  !
 ! A57   A(9,22,70)            127.342          calculate D2E/DX2 analytically  !
 ! A58   A(9,23,24)            118.8897         calculate D2E/DX2 analytically  !
 ! A59   A(9,23,25)            121.8239         calculate D2E/DX2 analytically  !
 ! A60   A(24,23,25)           119.2335         calculate D2E/DX2 analytically  !
 ! A61   A(23,24,26)           120.4899         calculate D2E/DX2 analytically  !
 ! A62   A(23,24,27)           119.427          calculate D2E/DX2 analytically  !
 ! A63   A(26,24,27)           120.0831         calculate D2E/DX2 analytically  !
 ! A64   A(23,25,28)           120.2843         calculate D2E/DX2 analytically  !
 ! A65   A(23,25,29)           120.536          calculate D2E/DX2 analytically  !
 ! A66   A(28,25,29)           119.1789         calculate D2E/DX2 analytically  !
 ! A67   A(24,26,30)           120.0074         calculate D2E/DX2 analytically  !
 ! A68   A(24,26,31)           119.8082         calculate D2E/DX2 analytically  !
 ! A69   A(30,26,31)           120.1828         calculate D2E/DX2 analytically  !
 ! A70   A(25,28,30)           120.1635         calculate D2E/DX2 analytically  !
 ! A71   A(25,28,32)           119.7115         calculate D2E/DX2 analytically  !
 ! A72   A(30,28,32)           120.1246         calculate D2E/DX2 analytically  !
 ! A73   A(26,30,28)           119.7959         calculate D2E/DX2 analytically  !
 ! A74   A(26,30,33)           120.1142         calculate D2E/DX2 analytically  !
 ! A75   A(28,30,33)           120.0844         calculate D2E/DX2 analytically  !
 ! A76   A(35,34,36)           118.9831         calculate D2E/DX2 analytically  !
 ! A77   A(35,34,42)           123.2982         calculate D2E/DX2 analytically  !
 ! A78   A(36,34,42)           117.295          calculate D2E/DX2 analytically  !
 ! A79   A(34,36,37)           116.4128         calculate D2E/DX2 analytically  !
 ! A80   A(34,36,47)           117.5331         calculate D2E/DX2 analytically  !
 ! A81   A(34,36,48)           113.9077         calculate D2E/DX2 analytically  !
 ! A82   A(37,36,47)           112.724          calculate D2E/DX2 analytically  !
 ! A83   A(37,36,48)            97.8688         calculate D2E/DX2 analytically  !
 ! A84   A(47,36,48)            94.4085         calculate D2E/DX2 analytically  !
 ! A85   A(36,37,38)           112.6676         calculate D2E/DX2 analytically  !
 ! A86   A(36,37,39)           110.018          calculate D2E/DX2 analytically  !
 ! A87   A(36,37,40)           113.014          calculate D2E/DX2 analytically  !
 ! A88   A(38,37,39)           106.8034         calculate D2E/DX2 analytically  !
 ! A89   A(38,37,40)           107.5585         calculate D2E/DX2 analytically  !
 ! A90   A(39,37,40)           106.401          calculate D2E/DX2 analytically  !
 ! A91   A(15,42,34)           117.7022         calculate D2E/DX2 analytically  !
 ! A92   A(15,42,41)           116.4471         calculate D2E/DX2 analytically  !
 ! A93   A(34,42,41)           125.8469         calculate D2E/DX2 analytically  !
 ! A94   A(1,44,5)             117.5327         calculate D2E/DX2 analytically  !
 ! A95   A(1,44,45)            120.8702         calculate D2E/DX2 analytically  !
 ! A96   A(5,44,45)            121.5963         calculate D2E/DX2 analytically  !
 ! A97   A(36,48,49)            92.9316         calculate D2E/DX2 analytically  !
 ! A98   A(48,49,50)           112.0704         calculate D2E/DX2 analytically  !
 ! A99   A(48,49,65)           128.6994         calculate D2E/DX2 analytically  !
 ! A100  A(50,49,65)           118.9833         calculate D2E/DX2 analytically  !
 ! A101  A(49,50,51)           113.0784         calculate D2E/DX2 analytically  !
 ! A102  A(49,50,52)           131.4002         calculate D2E/DX2 analytically  !
 ! A103  A(51,50,52)           114.532          calculate D2E/DX2 analytically  !
 ! A104  A(50,52,53)           124.9304         calculate D2E/DX2 analytically  !
 ! A105  A(50,52,54)           116.3211         calculate D2E/DX2 analytically  !
 ! A106  A(53,52,54)           118.7252         calculate D2E/DX2 analytically  !
 ! A107  A(52,53,55)           120.0039         calculate D2E/DX2 analytically  !
 ! A108  A(52,53,56)           119.4788         calculate D2E/DX2 analytically  !
 ! A109  A(55,53,56)           120.5164         calculate D2E/DX2 analytically  !
 ! A110  A(52,54,57)           121.2082         calculate D2E/DX2 analytically  !
 ! A111  A(52,54,58)           119.05           calculate D2E/DX2 analytically  !
 ! A112  A(57,54,58)           119.7315         calculate D2E/DX2 analytically  !
 ! A113  A(53,55,59)           119.8144         calculate D2E/DX2 analytically  !
 ! A114  A(53,55,60)           120.5436         calculate D2E/DX2 analytically  !
 ! A115  A(59,55,60)           119.6417         calculate D2E/DX2 analytically  !
 ! A116  A(21,56,53)           112.6139         calculate D2E/DX2 analytically  !
 ! A117  A(54,57,59)           118.8248         calculate D2E/DX2 analytically  !
 ! A118  A(54,57,61)           121.1278         calculate D2E/DX2 analytically  !
 ! A119  A(59,57,61)           120.0328         calculate D2E/DX2 analytically  !
 ! A120  A(55,59,57)           121.348          calculate D2E/DX2 analytically  !
 ! A121  A(55,59,62)           119.3215         calculate D2E/DX2 analytically  !
 ! A122  A(57,59,62)           119.3154         calculate D2E/DX2 analytically  !
 ! A123  A(59,62,63)           117.9612         calculate D2E/DX2 analytically  !
 ! A124  A(59,62,64)           117.913          calculate D2E/DX2 analytically  !
 ! A125  A(63,62,64)           124.1255         calculate D2E/DX2 analytically  !
 ! A126  A(49,65,66)           128.1594         calculate D2E/DX2 analytically  !
 ! A127  A(65,66,67)           115.4748         calculate D2E/DX2 analytically  !
 ! A128  A(65,66,68)           126.5003         calculate D2E/DX2 analytically  !
 ! A129  A(67,66,68)           117.9075         calculate D2E/DX2 analytically  !
 ! A130  A(66,67,69)           121.9215         calculate D2E/DX2 analytically  !
 ! A131  A(66,67,70)           118.0861         calculate D2E/DX2 analytically  !
 ! A132  A(69,67,70)           119.982          calculate D2E/DX2 analytically  !
 ! A133  A(66,68,71)           120.5701         calculate D2E/DX2 analytically  !
 ! A134  A(66,68,72)           120.0636         calculate D2E/DX2 analytically  !
 ! A135  A(71,68,72)           119.3662         calculate D2E/DX2 analytically  !
 ! A136  A(67,69,73)           118.311          calculate D2E/DX2 analytically  !
 ! A137  A(67,69,74)           121.5005         calculate D2E/DX2 analytically  !
 ! A138  A(73,69,74)           120.1825         calculate D2E/DX2 analytically  !
 ! A139  A(22,70,67)            97.6042         calculate D2E/DX2 analytically  !
 ! A140  A(22,70,83)           109.1895         calculate D2E/DX2 analytically  !
 ! A141  A(67,70,83)           144.1674         calculate D2E/DX2 analytically  !
 ! A142  A(68,71,73)           119.5611         calculate D2E/DX2 analytically  !
 ! A143  A(68,71,75)           120.7732         calculate D2E/DX2 analytically  !
 ! A144  A(73,71,75)           119.6657         calculate D2E/DX2 analytically  !
 ! A145  A(69,73,71)           121.6421         calculate D2E/DX2 analytically  !
 ! A146  A(69,73,76)           119.0635         calculate D2E/DX2 analytically  !
 ! A147  A(71,73,76)           119.2831         calculate D2E/DX2 analytically  !
 ! A148  A(73,76,77)           117.8418         calculate D2E/DX2 analytically  !
 ! A149  A(73,76,78)           117.9976         calculate D2E/DX2 analytically  !
 ! A150  A(77,76,78)           124.1606         calculate D2E/DX2 analytically  !
 ! A151  A(16,80,81)           110.8948         calculate D2E/DX2 analytically  !
 ! A152  A(16,80,82)           110.7409         calculate D2E/DX2 analytically  !
 ! A153  A(16,80,83)           111.5398         calculate D2E/DX2 analytically  !
 ! A154  A(81,80,82)           107.5764         calculate D2E/DX2 analytically  !
 ! A155  A(81,80,83)           107.9082         calculate D2E/DX2 analytically  !
 ! A156  A(82,80,83)           108.0264         calculate D2E/DX2 analytically  !
 ! A157  A(70,83,80)           118.3766         calculate D2E/DX2 analytically  !
 ! D1    D(44,1,2,3)             1.0145         calculate D2E/DX2 analytically  !
 ! D2    D(44,1,2,6)          -179.2377         calculate D2E/DX2 analytically  !
 ! D3    D(46,1,2,3)          -179.4009         calculate D2E/DX2 analytically  !
 ! D4    D(46,1,2,6)             0.3469         calculate D2E/DX2 analytically  !
 ! D5    D(2,1,44,5)             0.2675         calculate D2E/DX2 analytically  !
 ! D6    D(2,1,44,45)          179.959          calculate D2E/DX2 analytically  !
 ! D7    D(46,1,44,5)         -179.319          calculate D2E/DX2 analytically  !
 ! D8    D(46,1,44,45)           0.3725         calculate D2E/DX2 analytically  !
 ! D9    D(1,2,3,4)             -1.083          calculate D2E/DX2 analytically  !
 ! D10   D(1,2,3,7)            179.7367         calculate D2E/DX2 analytically  !
 ! D11   D(6,2,3,4)            179.1685         calculate D2E/DX2 analytically  !
 ! D12   D(6,2,3,7)             -0.0118         calculate D2E/DX2 analytically  !
 ! D13   D(2,3,4,5)             -0.0988         calculate D2E/DX2 analytically  !
 ! D14   D(2,3,4,13)          -179.2851         calculate D2E/DX2 analytically  !
 ! D15   D(7,3,4,5)            179.0839         calculate D2E/DX2 analytically  !
 ! D16   D(7,3,4,13)            -0.1024         calculate D2E/DX2 analytically  !
 ! D17   D(3,4,5,14)          -177.9519         calculate D2E/DX2 analytically  !
 ! D18   D(3,4,5,44)             1.4013         calculate D2E/DX2 analytically  !
 ! D19   D(13,4,5,14)            1.3543         calculate D2E/DX2 analytically  !
 ! D20   D(13,4,5,44)         -179.2925         calculate D2E/DX2 analytically  !
 ! D21   D(3,4,13,8)           178.2677         calculate D2E/DX2 analytically  !
 ! D22   D(5,4,13,8)            -0.9834         calculate D2E/DX2 analytically  !
 ! D23   D(4,5,14,8)            -1.1112         calculate D2E/DX2 analytically  !
 ! D24   D(4,5,14,11)          178.1862         calculate D2E/DX2 analytically  !
 ! D25   D(44,5,14,8)          179.5824         calculate D2E/DX2 analytically  !
 ! D26   D(44,5,14,11)          -1.1203         calculate D2E/DX2 analytically  !
 ! D27   D(4,5,44,1)            -1.4558         calculate D2E/DX2 analytically  !
 ! D28   D(4,5,44,45)          178.855          calculate D2E/DX2 analytically  !
 ! D29   D(14,5,44,1)          177.79           calculate D2E/DX2 analytically  !
 ! D30   D(14,5,44,45)          -1.8991         calculate D2E/DX2 analytically  !
 ! D31   D(14,8,13,4)            0.3679         calculate D2E/DX2 analytically  !
 ! D32   D(15,8,13,4)         -179.5155         calculate D2E/DX2 analytically  !
 ! D33   D(13,8,14,5)            0.3493         calculate D2E/DX2 analytically  !
 ! D34   D(13,8,14,11)        -178.9411         calculate D2E/DX2 analytically  !
 ! D35   D(15,8,14,5)         -179.7642         calculate D2E/DX2 analytically  !
 ! D36   D(15,8,14,11)           0.9453         calculate D2E/DX2 analytically  !
 ! D37   D(13,8,15,9)         -178.3801         calculate D2E/DX2 analytically  !
 ! D38   D(13,8,15,42)           2.5547         calculate D2E/DX2 analytically  !
 ! D39   D(14,8,15,9)            1.7476         calculate D2E/DX2 analytically  !
 ! D40   D(14,8,15,42)        -177.3175         calculate D2E/DX2 analytically  !
 ! D41   D(15,9,10,11)          54.2811         calculate D2E/DX2 analytically  !
 ! D42   D(15,9,10,16)        -177.4213         calculate D2E/DX2 analytically  !
 ! D43   D(15,9,10,21)         -60.4571         calculate D2E/DX2 analytically  !
 ! D44   D(22,9,10,11)         167.6575         calculate D2E/DX2 analytically  !
 ! D45   D(22,9,10,16)         -64.0449         calculate D2E/DX2 analytically  !
 ! D46   D(22,9,10,21)          52.9193         calculate D2E/DX2 analytically  !
 ! D47   D(23,9,10,11)         -72.7279         calculate D2E/DX2 analytically  !
 ! D48   D(23,9,10,16)          55.5697         calculate D2E/DX2 analytically  !
 ! D49   D(23,9,10,21)         172.5339         calculate D2E/DX2 analytically  !
 ! D50   D(10,9,15,8)          -29.5616         calculate D2E/DX2 analytically  !
 ! D51   D(10,9,15,42)         149.4964         calculate D2E/DX2 analytically  !
 ! D52   D(22,9,15,8)         -142.578          calculate D2E/DX2 analytically  !
 ! D53   D(22,9,15,42)          36.48           calculate D2E/DX2 analytically  !
 ! D54   D(23,9,15,8)           99.4986         calculate D2E/DX2 analytically  !
 ! D55   D(23,9,15,42)         -81.4435         calculate D2E/DX2 analytically  !
 ! D56   D(10,9,22,70)          -7.2548         calculate D2E/DX2 analytically  !
 ! D57   D(15,9,22,70)         108.7775         calculate D2E/DX2 analytically  !
 ! D58   D(23,9,22,70)        -131.266          calculate D2E/DX2 analytically  !
 ! D59   D(10,9,23,24)         -95.8849         calculate D2E/DX2 analytically  !
 ! D60   D(10,9,23,25)          81.4479         calculate D2E/DX2 analytically  !
 ! D61   D(15,9,23,24)         138.1317         calculate D2E/DX2 analytically  !
 ! D62   D(15,9,23,25)         -44.5355         calculate D2E/DX2 analytically  !
 ! D63   D(22,9,23,24)          21.8829         calculate D2E/DX2 analytically  !
 ! D64   D(22,9,23,25)        -160.7843         calculate D2E/DX2 analytically  !
 ! D65   D(9,10,11,12)        -169.4737         calculate D2E/DX2 analytically  !
 ! D66   D(9,10,11,14)         -51.3462         calculate D2E/DX2 analytically  !
 ! D67   D(9,10,11,43)          69.1052         calculate D2E/DX2 analytically  !
 ! D68   D(16,10,11,12)         62.0684         calculate D2E/DX2 analytically  !
 ! D69   D(16,10,11,14)       -179.8041         calculate D2E/DX2 analytically  !
 ! D70   D(16,10,11,43)        -59.3527         calculate D2E/DX2 analytically  !
 ! D71   D(21,10,11,12)        -56.0235         calculate D2E/DX2 analytically  !
 ! D72   D(21,10,11,14)         62.104          calculate D2E/DX2 analytically  !
 ! D73   D(21,10,11,43)       -177.4447         calculate D2E/DX2 analytically  !
 ! D74   D(9,10,16,17)         -90.0594         calculate D2E/DX2 analytically  !
 ! D75   D(9,10,16,79)          29.1552         calculate D2E/DX2 analytically  !
 ! D76   D(9,10,16,80)         145.5883         calculate D2E/DX2 analytically  !
 ! D77   D(11,10,16,17)         36.8559         calculate D2E/DX2 analytically  !
 ! D78   D(11,10,16,79)        156.0704         calculate D2E/DX2 analytically  !
 ! D79   D(11,10,16,80)        -87.4965         calculate D2E/DX2 analytically  !
 ! D80   D(21,10,16,17)        154.563          calculate D2E/DX2 analytically  !
 ! D81   D(21,10,16,79)        -86.2225         calculate D2E/DX2 analytically  !
 ! D82   D(21,10,16,80)         30.2107         calculate D2E/DX2 analytically  !
 ! D83   D(9,10,21,56)           8.5091         calculate D2E/DX2 analytically  !
 ! D84   D(11,10,21,56)       -108.7674         calculate D2E/DX2 analytically  !
 ! D85   D(16,10,21,56)        129.4927         calculate D2E/DX2 analytically  !
 ! D86   D(10,11,14,5)        -154.3478         calculate D2E/DX2 analytically  !
 ! D87   D(10,11,14,8)          24.8879         calculate D2E/DX2 analytically  !
 ! D88   D(12,11,14,5)         -34.5146         calculate D2E/DX2 analytically  !
 ! D89   D(12,11,14,8)         144.7211         calculate D2E/DX2 analytically  !
 ! D90   D(43,11,14,5)          82.9308         calculate D2E/DX2 analytically  !
 ! D91   D(43,11,14,8)         -97.8335         calculate D2E/DX2 analytically  !
 ! D92   D(8,15,42,34)         179.5006         calculate D2E/DX2 analytically  !
 ! D93   D(8,15,42,41)           0.1705         calculate D2E/DX2 analytically  !
 ! D94   D(9,15,42,34)           0.4355         calculate D2E/DX2 analytically  !
 ! D95   D(9,15,42,41)        -178.8945         calculate D2E/DX2 analytically  !
 ! D96   D(10,16,17,18)        -69.7119         calculate D2E/DX2 analytically  !
 ! D97   D(10,16,17,19)         51.9983         calculate D2E/DX2 analytically  !
 ! D98   D(10,16,17,20)        172.139          calculate D2E/DX2 analytically  !
 ! D99   D(79,16,17,18)        171.8681         calculate D2E/DX2 analytically  !
 ! D100  D(79,16,17,19)        -66.4216         calculate D2E/DX2 analytically  !
 ! D101  D(79,16,17,20)         53.719          calculate D2E/DX2 analytically  !
 ! D102  D(80,16,17,18)         54.6027         calculate D2E/DX2 analytically  !
 ! D103  D(80,16,17,19)        176.3129         calculate D2E/DX2 analytically  !
 ! D104  D(80,16,17,20)        -63.5465         calculate D2E/DX2 analytically  !
 ! D105  D(10,16,80,81)         60.2176         calculate D2E/DX2 analytically  !
 ! D106  D(10,16,80,82)        179.5715         calculate D2E/DX2 analytically  !
 ! D107  D(10,16,80,83)        -60.0829         calculate D2E/DX2 analytically  !
 ! D108  D(17,16,80,81)        -66.6501         calculate D2E/DX2 analytically  !
 ! D109  D(17,16,80,82)         52.7037         calculate D2E/DX2 analytically  !
 ! D110  D(17,16,80,83)        173.0494         calculate D2E/DX2 analytically  !
 ! D111  D(79,16,80,81)        175.9254         calculate D2E/DX2 analytically  !
 ! D112  D(79,16,80,82)        -64.7208         calculate D2E/DX2 analytically  !
 ! D113  D(79,16,80,83)         55.6249         calculate D2E/DX2 analytically  !
 ! D114  D(10,21,56,53)         83.9626         calculate D2E/DX2 analytically  !
 ! D115  D(9,22,70,67)         173.4107         calculate D2E/DX2 analytically  !
 ! D116  D(9,22,70,83)          17.5565         calculate D2E/DX2 analytically  !
 ! D117  D(9,23,24,26)         175.6904         calculate D2E/DX2 analytically  !
 ! D118  D(9,23,24,27)          -4.3145         calculate D2E/DX2 analytically  !
 ! D119  D(25,23,24,26)         -1.7127         calculate D2E/DX2 analytically  !
 ! D120  D(25,23,24,27)        178.2824         calculate D2E/DX2 analytically  !
 ! D121  D(9,23,25,28)        -175.7214         calculate D2E/DX2 analytically  !
 ! D122  D(9,23,25,29)           4.6057         calculate D2E/DX2 analytically  !
 ! D123  D(24,23,25,28)          1.6025         calculate D2E/DX2 analytically  !
 ! D124  D(24,23,25,29)       -178.0704         calculate D2E/DX2 analytically  !
 ! D125  D(23,24,26,30)          0.5619         calculate D2E/DX2 analytically  !
 ! D126  D(23,24,26,31)       -179.893          calculate D2E/DX2 analytically  !
 ! D127  D(27,24,26,30)       -179.4331         calculate D2E/DX2 analytically  !
 ! D128  D(27,24,26,31)          0.1119         calculate D2E/DX2 analytically  !
 ! D129  D(23,25,28,30)         -0.346          calculate D2E/DX2 analytically  !
 ! D130  D(23,25,28,32)        179.8853         calculate D2E/DX2 analytically  !
 ! D131  D(29,25,28,30)        179.3313         calculate D2E/DX2 analytically  !
 ! D132  D(29,25,28,32)         -0.4374         calculate D2E/DX2 analytically  !
 ! D133  D(24,26,30,28)          0.7126         calculate D2E/DX2 analytically  !
 ! D134  D(24,26,30,33)        179.8655         calculate D2E/DX2 analytically  !
 ! D135  D(31,26,30,28)       -178.8307         calculate D2E/DX2 analytically  !
 ! D136  D(31,26,30,33)          0.3222         calculate D2E/DX2 analytically  !
 ! D137  D(25,28,30,26)         -0.8201         calculate D2E/DX2 analytically  !
 ! D138  D(25,28,30,33)       -179.9733         calculate D2E/DX2 analytically  !
 ! D139  D(32,28,30,26)        178.9477         calculate D2E/DX2 analytically  !
 ! D140  D(32,28,30,33)         -0.2055         calculate D2E/DX2 analytically  !
 ! D141  D(35,34,36,37)         26.4259         calculate D2E/DX2 analytically  !
 ! D142  D(35,34,36,47)        164.6129         calculate D2E/DX2 analytically  !
 ! D143  D(35,34,36,48)        -86.3662         calculate D2E/DX2 analytically  !
 ! D144  D(42,34,36,37)       -160.7952         calculate D2E/DX2 analytically  !
 ! D145  D(42,34,36,47)        -22.6082         calculate D2E/DX2 analytically  !
 ! D146  D(42,34,36,48)         86.4127         calculate D2E/DX2 analytically  !
 ! D147  D(35,34,42,15)          0.4416         calculate D2E/DX2 analytically  !
 ! D148  D(35,34,42,41)        179.7015         calculate D2E/DX2 analytically  !
 ! D149  D(36,34,42,15)       -171.999          calculate D2E/DX2 analytically  !
 ! D150  D(36,34,42,41)          7.261          calculate D2E/DX2 analytically  !
 ! D151  D(34,36,37,38)        -48.0009         calculate D2E/DX2 analytically  !
 ! D152  D(34,36,37,39)         71.0503         calculate D2E/DX2 analytically  !
 ! D153  D(34,36,37,40)       -170.1825         calculate D2E/DX2 analytically  !
 ! D154  D(47,36,37,38)        171.8614         calculate D2E/DX2 analytically  !
 ! D155  D(47,36,37,39)        -69.0874         calculate D2E/DX2 analytically  !
 ! D156  D(47,36,37,40)         49.6799         calculate D2E/DX2 analytically  !
 ! D157  D(48,36,37,38)         73.6973         calculate D2E/DX2 analytically  !
 ! D158  D(48,36,37,39)       -167.2515         calculate D2E/DX2 analytically  !
 ! D159  D(48,36,37,40)        -48.4843         calculate D2E/DX2 analytically  !
 ! D160  D(34,36,48,49)        -15.87           calculate D2E/DX2 analytically  !
 ! D161  D(37,36,48,49)       -139.4071         calculate D2E/DX2 analytically  !
 ! D162  D(47,36,48,49)        106.9036         calculate D2E/DX2 analytically  !
 ! D163  D(36,48,49,50)        -93.3411         calculate D2E/DX2 analytically  !
 ! D164  D(36,48,49,65)         80.8111         calculate D2E/DX2 analytically  !
 ! D165  D(48,49,50,51)         -4.3529         calculate D2E/DX2 analytically  !
 ! D166  D(48,49,50,52)        163.4228         calculate D2E/DX2 analytically  !
 ! D167  D(65,49,50,51)       -179.1376         calculate D2E/DX2 analytically  !
 ! D168  D(65,49,50,52)        -11.3618         calculate D2E/DX2 analytically  !
 ! D169  D(48,49,65,66)          7.4723         calculate D2E/DX2 analytically  !
 ! D170  D(50,49,65,66)       -178.7242         calculate D2E/DX2 analytically  !
 ! D171  D(49,50,52,53)          3.8103         calculate D2E/DX2 analytically  !
 ! D172  D(49,50,52,54)       -174.4026         calculate D2E/DX2 analytically  !
 ! D173  D(51,50,52,53)        171.4463         calculate D2E/DX2 analytically  !
 ! D174  D(51,50,52,54)         -6.7667         calculate D2E/DX2 analytically  !
 ! D175  D(50,52,53,55)       -175.185          calculate D2E/DX2 analytically  !
 ! D176  D(50,52,53,56)          4.4784         calculate D2E/DX2 analytically  !
 ! D177  D(54,52,53,55)          2.9884         calculate D2E/DX2 analytically  !
 ! D178  D(54,52,53,56)       -177.3482         calculate D2E/DX2 analytically  !
 ! D179  D(50,52,54,57)        176.3245         calculate D2E/DX2 analytically  !
 ! D180  D(50,52,54,58)         -2.5018         calculate D2E/DX2 analytically  !
 ! D181  D(53,52,54,57)         -2.0049         calculate D2E/DX2 analytically  !
 ! D182  D(53,52,54,58)        179.1688         calculate D2E/DX2 analytically  !
 ! D183  D(52,53,55,59)         -1.5359         calculate D2E/DX2 analytically  !
 ! D184  D(52,53,55,60)        178.6574         calculate D2E/DX2 analytically  !
 ! D185  D(56,53,55,59)        178.8043         calculate D2E/DX2 analytically  !
 ! D186  D(56,53,55,60)         -1.0025         calculate D2E/DX2 analytically  !
 ! D187  D(52,53,56,21)       -130.0285         calculate D2E/DX2 analytically  !
 ! D188  D(55,53,56,21)         49.6331         calculate D2E/DX2 analytically  !
 ! D189  D(52,54,57,59)         -0.4456         calculate D2E/DX2 analytically  !
 ! D190  D(52,54,57,61)       -179.0602         calculate D2E/DX2 analytically  !
 ! D191  D(58,54,57,59)        178.3729         calculate D2E/DX2 analytically  !
 ! D192  D(58,54,57,61)         -0.2418         calculate D2E/DX2 analytically  !
 ! D193  D(53,55,59,57)         -0.989          calculate D2E/DX2 analytically  !
 ! D194  D(53,55,59,62)        177.5887         calculate D2E/DX2 analytically  !
 ! D195  D(60,55,59,57)        178.8195         calculate D2E/DX2 analytically  !
 ! D196  D(60,55,59,62)         -2.6028         calculate D2E/DX2 analytically  !
 ! D197  D(54,57,59,55)          1.9762         calculate D2E/DX2 analytically  !
 ! D198  D(54,57,59,62)       -176.6017         calculate D2E/DX2 analytically  !
 ! D199  D(61,57,59,55)       -179.3936         calculate D2E/DX2 analytically  !
 ! D200  D(61,57,59,62)          2.0286         calculate D2E/DX2 analytically  !
 ! D201  D(55,59,62,63)         -3.0517         calculate D2E/DX2 analytically  !
 ! D202  D(55,59,62,64)        177.1361         calculate D2E/DX2 analytically  !
 ! D203  D(57,59,62,63)        175.5552         calculate D2E/DX2 analytically  !
 ! D204  D(57,59,62,64)         -4.2569         calculate D2E/DX2 analytically  !
 ! D205  D(49,65,66,67)       -156.7238         calculate D2E/DX2 analytically  !
 ! D206  D(49,65,66,68)         27.3232         calculate D2E/DX2 analytically  !
 ! D207  D(65,66,67,69)       -179.6217         calculate D2E/DX2 analytically  !
 ! D208  D(65,66,67,70)         -0.797          calculate D2E/DX2 analytically  !
 ! D209  D(68,66,67,69)         -3.3025         calculate D2E/DX2 analytically  !
 ! D210  D(68,66,67,70)        175.5223         calculate D2E/DX2 analytically  !
 ! D211  D(65,66,68,71)        178.5329         calculate D2E/DX2 analytically  !
 ! D212  D(65,66,68,72)         -1.3538         calculate D2E/DX2 analytically  !
 ! D213  D(67,66,68,71)          2.6674         calculate D2E/DX2 analytically  !
 ! D214  D(67,66,68,72)       -177.2194         calculate D2E/DX2 analytically  !
 ! D215  D(66,67,69,73)          1.4575         calculate D2E/DX2 analytically  !
 ! D216  D(66,67,69,74)       -179.4322         calculate D2E/DX2 analytically  !
 ! D217  D(70,67,69,73)       -177.3455         calculate D2E/DX2 analytically  !
 ! D218  D(70,67,69,74)          1.7648         calculate D2E/DX2 analytically  !
 ! D219  D(66,67,70,22)         74.601          calculate D2E/DX2 analytically  !
 ! D220  D(66,67,70,83)       -146.693          calculate D2E/DX2 analytically  !
 ! D221  D(69,67,70,22)       -106.5506         calculate D2E/DX2 analytically  !
 ! D222  D(69,67,70,83)         32.1554         calculate D2E/DX2 analytically  !
 ! D223  D(66,68,71,73)         -0.2649         calculate D2E/DX2 analytically  !
 ! D224  D(66,68,71,75)        179.7834         calculate D2E/DX2 analytically  !
 ! D225  D(72,68,71,73)        179.6227         calculate D2E/DX2 analytically  !
 ! D226  D(72,68,71,75)         -0.329          calculate D2E/DX2 analytically  !
 ! D227  D(67,69,73,71)          1.0944         calculate D2E/DX2 analytically  !
 ! D228  D(67,69,73,76)        179.8628         calculate D2E/DX2 analytically  !
 ! D229  D(74,69,73,71)       -178.0281         calculate D2E/DX2 analytically  !
 ! D230  D(74,69,73,76)          0.7403         calculate D2E/DX2 analytically  !
 ! D231  D(22,70,83,80)         31.4526         calculate D2E/DX2 analytically  !
 ! D232  D(67,70,83,80)       -104.7109         calculate D2E/DX2 analytically  !
 ! D233  D(68,71,73,69)         -1.6875         calculate D2E/DX2 analytically  !
 ! D234  D(68,71,73,76)        179.5468         calculate D2E/DX2 analytically  !
 ! D235  D(75,71,73,69)        178.2648         calculate D2E/DX2 analytically  !
 ! D236  D(75,71,73,76)         -0.5009         calculate D2E/DX2 analytically  !
 ! D237  D(69,73,76,77)          1.2309         calculate D2E/DX2 analytically  !
 ! D238  D(69,73,76,78)       -178.8057         calculate D2E/DX2 analytically  !
 ! D239  D(71,73,76,77)       -179.9713         calculate D2E/DX2 analytically  !
 ! D240  D(71,73,76,78)         -0.0079         calculate D2E/DX2 analytically  !
 ! D241  D(16,80,83,70)        -12.515          calculate D2E/DX2 analytically  !
 ! D242  D(81,80,83,70)       -134.5546         calculate D2E/DX2 analytically  !
 ! D243  D(82,80,83,70)        109.4119         calculate D2E/DX2 analytically  !
 --------------------------------------------------------------------------------
 Trust Radius=3.00D-01 FncErr=1.00D-07 GrdErr=1.00D-06 EigMax=2.50D+02 EigMin=1.00D-04
 Number of steps in this run=    498 maximum allowed number of steps=    498.
 Search for a saddle point of order  1.
 GradGradGradGradGradGradGradGradGradGradGradGradGradGradGradGradGradGrad

 Leave Link  103 at Wed Jun 26 11:00:01 2024, MaxMem=  2147483648 cpu:               0.4 elap:               0.0
 (Enter /usr/local/Gaussian2/g16/l202.exe)
 Stoichiometry    C36H31F3N6O5S2
 Framework group  C1[X(C36H31F3N6O5S2)]
 Deg. of freedom   243
 Full point group                 C1      NOp   1
 Largest Abelian subgroup         C1      NOp   1
 Largest concise Abelian subgroup C1      NOp   1
                         Standard orientation:                         
 ---------------------------------------------------------------------
 Center     Atomic      Atomic             Coordinates (Angstroms)
 Number     Number       Type             X           Y           Z
 ---------------------------------------------------------------------
      1          6           0       -6.259958    1.915444   -0.150895
      2          6           0       -6.694052    0.747207    0.489989
      3          6           0       -5.781696   -0.132062    1.064980
      4          6           0       -4.425367    0.175181    0.962355
      5          6           0       -3.995925    1.327500    0.301765
      6          1           0       -7.760193    0.524287    0.543591
      7          1           0       -6.113839   -1.040997    1.568994
      8          6           0       -1.966709    0.412469    0.899772
      9          6           0        0.209002    1.406217    0.400107
     10          6           0       -0.515613    2.041055   -0.797441
     11          6           0       -1.897744    2.514267   -0.391653
     12          1           0       -2.482579    2.794087   -1.277621
     13         16           0       -3.070497   -0.756480    1.574161
     14          7           0       -2.599442    1.417523    0.276649
     15          7           0       -0.630780    0.338110    0.978540
     16          6           0        0.315167    3.131977   -1.511390
     17          6           0        0.108548    4.545724   -0.961797
     18          1           0       -0.897355    4.921055   -1.208127
     19          1           0        0.240130    4.605902    0.127793
     20          1           0        0.833194    5.230749   -1.425252
     21          1           0       -0.658629    1.212220   -1.512052
     22          1           0        1.081225    0.901532   -0.026003
     23          6           0        0.683971    2.377974    1.459038
     24          6           0        2.006643    2.831314    1.415814
     25          6           0       -0.176793    2.875070    2.443409
     26          6           0        2.454274    3.793715    2.319269
     27          1           0        2.690086    2.423882    0.665386
     28          6           0        0.271184    3.836604    3.349268
     29          1           0       -1.205487    2.512325    2.516432
     30          6           0        1.584266    4.303791    3.283586
     31          1           0        3.487850    4.140666    2.274429
     32          1           0       -0.408771    4.219284    4.112202
     33          1           0        1.933485    5.055694    3.993160
     34          6           0        1.403948   -0.856679    1.672245
     35          1           0        2.040631   -0.076448    1.266219
     36          6           0        1.990754   -2.037930    2.132823
     37          6           0        3.416755   -1.937475    2.605087
     38          9           0        4.198728   -1.282290    1.744380
     39          9           0        3.469957   -1.267056    3.764736
     40          9           0        3.976600   -3.128184    2.831970
     41          8           0       -0.777320   -1.666884    2.057337
     42          6           0       -0.014651   -0.811661    1.619472
     43          1           0       -1.861312    3.376375    0.291565
     44          6           0       -4.907781    2.226003   -0.253125
     45          1           0       -4.579527    3.136407   -0.753888
     46          1           0       -6.994104    2.594722   -0.585819
     47          1           0        1.383007   -2.691506    2.762137
     48         16           0        2.307693   -3.596230    0.518241
     49          6           0        1.209625   -2.789346   -0.602726
     50          7           0       -0.078098   -3.286796   -0.517411
     51          1           0       -0.159465   -4.073435    0.119142
     52          6           0       -1.286154   -2.778861   -0.960085
     53          6           0       -1.438251   -1.591835   -1.706007
     54          6           0       -2.443195   -3.503698   -0.593065
     55          6           0       -2.710110   -1.121894   -2.013109
     56          1           0       -0.556919   -1.049027   -2.031300
     57          6           0       -3.706722   -3.047140   -0.916528
     58          1           0       -2.330823   -4.430550   -0.027400
     59          6           0       -3.829699   -1.842569   -1.610223
     60          1           0       -2.838213   -0.193544   -2.570594
     61          1           0       -4.597794   -3.598850   -0.619957
     62          7           0       -5.162083   -1.311993   -1.892294
     63          8           0       -5.240297   -0.225726   -2.422683
     64          8           0       -6.118954   -1.985178   -1.577568
     65          7           0        1.438368   -1.779225   -1.365739
     66          6           0        2.646658   -1.148208   -1.610850
     67          6           0        2.554349    0.191891   -2.052471
     68          6           0        3.929732   -1.733629   -1.539260
     69          6           0        3.678887    0.945979   -2.344084
     70          1           0        1.560269    0.623403   -2.180155
     71          6           0        5.063242   -0.990030   -1.841013
     72          1           0        4.037458   -2.774650   -1.248041
     73          6           0        4.929288    0.342426   -2.222386
     74          1           0        3.600119    1.981081   -2.675214
     75          1           0        6.054753   -1.437248   -1.783496
     76          7           0        6.128911    1.123463   -2.529444
     77          8           0        5.982159    2.280302   -2.858002
     78          8           0        7.203561    0.573766   -2.438562
     79          1           0        1.375875    2.863099   -1.368574
     80          6           0        0.027465    3.107229   -3.012564
     81          1           0       -1.039425    3.298199   -3.211459
     82          1           0        0.606548    3.884003   -3.532976
     83          1           0        0.285765    2.134485   -3.457445
 ---------------------------------------------------------------------
 Rotational constants (GHZ):           0.0797803           0.0422115           0.0384279
 Leave Link  202 at Wed Jun 26 11:00:01 2024, MaxMem=  2147483648 cpu:               0.4 elap:               0.0
 (Enter /usr/local/Gaussian2/g16/l301.exe)
 General basis read from cards:  (5D, 7F)
 Centers:       1      2      3      4      5      8      9     10     11     16
 Centers:      17     23     24     25     26     28     30     34     36     37
 Centers:      42     44     49     52     53     54     55     57     59     66
 Centers:      67     68     69     71     73     80     38     39     40      6
 Centers:       7     12     18     19     20     21     22     27     29     31
 Centers:      32     33     35     43     45     46     47     51     56     58
 Centers:      60     61     70     72     74     75     79     81     82     83
 Centers:      14     15     50     62     65     76     41     63     64     77
 Centers:      78     13     48
 def2SVP
 ****
 Ernie: Thresh=  0.10000D-02 Tol=  0.10000D-05 Strict=F.
 There are   943 symmetry adapted cartesian basis functions of A   symmetry.
 There are   891 symmetry adapted basis functions of A   symmetry.
   891 basis functions,  1541 primitive gaussians,   943 cartesian basis functions
   194 alpha electrons      194 beta electrons
       nuclear repulsion energy      8165.9975917747 Hartrees.
 IExCor= 4336 DFT=T Ex+Corr=M062X ExCW=0 ScaHFX=  0.540000
 ScaDFX=  1.000000  1.000000  1.000000  1.000000 ScalE2=  1.000000  1.000000
 IRadAn=      5 IRanWt=     -1 IRanGd=            0 ICorTp=0 IEmpDi=  4
 NAtoms=   83 NActive=   83 NUniq=   83 SFac= 1.00D+00 NAtFMM=   60 NAOKFM=T Big=T
 Integral buffers will be    131072 words long.
 Raffenetti 2 integral format.
 Two-electron integral symmetry is turned on.
 Force inversion solution in PCM.
 ------------------------------------------------------------------------------
 Polarizable Continuum Model (PCM)
 =================================
 Model                : PCM.
 Atomic radii         : SMD-Coulomb.
 Polarization charges : Total charges.
 Charge compensation  : None.
 Solution method      : Matrix inversion.
 Cavity type          : VdW (van der Waals Surface) (Alpha=1.000).
 Cavity algorithm     : GePol (No added spheres)
                        Default sphere list used, NSphG=   83.
                        Lebedev-Laikov grids with approx.  5.0 points / Ang**2.
                        Smoothing algorithm: York/Karplus (Gamma=1.0000).
                        Polarization charges: spherical gaussians, with
                                              point-specific exponents (IZeta= 3).
                        Self-potential: point-specific (ISelfS= 7).
                        Self-field    : sphere-specific E.n sum rule (ISelfD= 2).
 1st derivatives      : Analytical E(r).r(x)/FMM algorithm (CHGder, D1EAlg=3).
                        Cavity 1st derivative terms included.
 2nd derivatives      : Analytical E(r).r(xy)/FMM algorithm (CHGder, D2EAlg=3).
                        Cavity 2nd derivative terms included.
 Solvent              : TetraHydroFuran, Eps=   7.425700 Eps(inf)=   1.974025
 ------------------------------------------------------------------------------
 GePol: Number of generator spheres                  =      83
 GePol: Total number of spheres                      =      83
 GePol: Number of exposed spheres                    =      83 (100.00%)
 GePol: Number of points                             =    5861
 GePol: Average weight of points                     =       0.12
 GePol: Minimum weight of points                     =   0.11D-11
 GePol: Maximum weight of points                     =    0.21501
 GePol: Number of points with low weight             =     333
 GePol: Fraction of low-weight points (<1% of avg)   =       5.68%
 GePol: Cavity surface area                          =    682.107 Ang**2
 GePol: Cavity volume                                =    794.095 Ang**3
 ------------------------------------------------------------------------------
 Atomic radii for non-electrostatic terms: SMD-CDS.
 ------------------------------------------------------------------------------
 PCM non-electrostatic energy =        -0.0128966925 Hartrees.
 Nuclear repulsion after PCM non-electrostatic terms =     8165.9846950822 Hartrees.
 Leave Link  301 at Wed Jun 26 11:00:01 2024, MaxMem=  2147483648 cpu:               1.9 elap:               0.1
 (Enter /usr/local/Gaussian2/g16/l302.exe)
 NPDir=0 NMtPBC=     1 NCelOv=     1 NCel=       1 NClECP=     1 NCelD=      1
         NCelK=      1 NCelE2=     1 NClLst=     1 CellRange=     0.0.
 One-electron integrals computed using PRISM.
 One-electron integral symmetry used in STVInt
 NBasis=   891 RedAO= T EigKep=  2.22D-04  NBF=   891
 NBsUse=   891 1.00D-06 EigRej= -1.00D+00 NBFU=   891
 Precomputing XC quadrature grid using
 IXCGrd= 4 IRadAn=           5 IRanWt=          -1 IRanGd=           0 AccXCQ= 0.00D+00.
 Generated NRdTot=       0 NPtTot=           0 NUsed=           0 NTot=          32
 NSgBfM=   878   878   878   878   878 MxSgAt=    83 MxSgA2=    83.
 Leave Link  302 at Wed Jun 26 11:00:03 2024, MaxMem=  2147483648 cpu:              33.4 elap:               2.1
 (Enter /usr/local/Gaussian2/g16/l303.exe)
 DipDrv:  MaxL=1.
 Leave Link  303 at Wed Jun 26 11:00:04 2024, MaxMem=  2147483648 cpu:               2.6 elap:               0.2
 (Enter /usr/local/Gaussian2/g16/l401.exe)
 ExpMin= 1.22D-01 ExpMax= 9.18D+03 ExpMxC= 1.38D+03 IAcc=3 IRadAn=         5 AccDes= 0.00D+00
 Harris functional with IExCor= 1009 and IRadAn=       5 diagonalized for initial guess.
 HarFok:  IExCor= 1009 AccDes= 0.00D+00 IRadAn=         5 IDoV= 1 UseB2=F ITyADJ=14
 ICtDFT=  3500011 ScaDFX=  1.000000  1.000000  1.000000  1.000000
 FoFCou: FMM=F IPFlag=           0 FMFlag=      100000 FMFlg1=        2001
         NFxFlg=           0 DoJE=T BraDBF=F KetDBF=T FulRan=T
         wScrn=  0.000000 ICntrl=       500 IOpCl=  0 I1Cent=   200000004 NGrid=           0
         NMat0=    1 NMatS0=      1 NMatT0=    0 NMatD0=    1 NMtDS0=    0 NMtDT0=    0
 Petite list used in FoFCou.
 Harris En= -3186.29614469606    
 JPrj=0 DoOrth=F DoCkMO=F.
 Leave Link  401 at Wed Jun 26 11:00:14 2024, MaxMem=  2147483648 cpu:             170.2 elap:              10.7
 (Enter /usr/local/Gaussian2/g16/l502.exe)
 Integral symmetry usage will be decided dynamically.
 Closed shell SCF:
 Using DIIS extrapolation, IDIIS=  1040.
 NGot=  2147483648 LenX=  2145678456 LenY=  2144788264
 Requested convergence on RMS density matrix=1.00D-08 within 128 cycles.
 Requested convergence on MAX density matrix=1.00D-06.
 Requested convergence on             energy=1.00D-06.
 No special actions if energy rises.
 Fock matrices will be formed incrementally for  20 cycles.

 Cycle   1  Pass 1  IDiag  1:
 FoFJK:  IHMeth= 1 ICntrl=       0 DoSepK=F KAlg= 0 I1Cent=           0 FoldK=F
 IRaf= 910000000 NMat=       1 IRICut=       1 DoRegI=T DoRafI=F ISym2E= 0 IDoP0=0 IntGTp=1.
 FoFCou: FMM=T IPFlag=           0 FMFlag=      100000 FMFlg1=        2001
         NFxFlg=           0 DoJE=F BraDBF=F KetDBF=F FulRan=T
         wScrn=  0.000000 ICntrl=         0 IOpCl=  0 I1Cent=           0 NGrid=           0
         NMat0=    1 NMatS0=      1 NMatT0=    0 NMatD0=    1 NMtDS0=    0 NMtDT0=    0
 Symmetry not used in FoFCou.
 FMM levels:  10  Number of levels for PrismC:   9
 Inv3:  Mode=1 IEnd=   103053963.
 Iteration    1 A*A^-1 deviation from unit magnitude is 6.44D-15 for   5836.
 Iteration    1 A*A^-1 deviation from orthogonality  is 3.34D-15 for   5856   5686.
 Iteration    1 A^-1*A deviation from unit magnitude is 6.66D-15 for   5854.
 Iteration    1 A^-1*A deviation from orthogonality  is 3.30D-15 for   5856   5686.
 E= -3186.77293193131    
 DIIS: error= 4.38D-02 at cycle   1 NSaved=   1.
 NSaved= 1 IEnMin= 1 EnMin= -3186.77293193131     IErMin= 1 ErrMin= 4.38D-02
 ErrMax= 4.38D-02  0.00D+00 EMaxC= 1.00D-01 BMatC= 1.31D+00 BMatP= 1.31D+00
 IDIUse=3 WtCom= 5.62D-01 WtEn= 4.38D-01
 Coeff-Com:  0.100D+01
 Coeff-En:   0.100D+01
 Coeff:      0.100D+01
 Gap=     0.286 Goal=   None    Shift=    0.000
 GapD=    0.286 DampG=1.000 DampE=0.500 DampFc=0.5000 IDamp=-1.
 Damping current iteration by 5.00D-01
 RMSDP=2.89D-03 MaxDP=2.15D-01              OVMax= 2.49D-01

 Cycle   2  Pass 1  IDiag  1:
 RMSU=  1.43D-03    CP:  9.86D-01
 E= -3187.31228714162     Delta-E=       -0.539355210309 Rises=F Damp=T
 DIIS: error= 9.01D-03 at cycle   2 NSaved=   2.
 NSaved= 2 IEnMin= 2 EnMin= -3187.31228714162     IErMin= 2 ErrMin= 9.01D-03
 ErrMax= 9.01D-03  0.00D+00 EMaxC= 1.00D-01 BMatC= 1.00D-01 BMatP= 1.31D+00
 IDIUse=3 WtCom= 9.10D-01 WtEn= 9.01D-02
 Coeff-Com:  0.269D-01 0.973D+00
 Coeff-En:   0.343D-01 0.966D+00
 Coeff:      0.276D-01 0.972D+00
 Gap=     0.250 Goal=   None    Shift=    0.000
 RMSDP=8.10D-04 MaxDP=5.67D-02 DE=-5.39D-01 OVMax= 1.69D-01

 Cycle   3  Pass 1  IDiag  1:
 RMSU=  7.98D-04    CP:  9.75D-01  1.01D+00
 E= -3187.90912594862     Delta-E=       -0.596838806999 Rises=F Damp=F
 DIIS: error= 1.04D-02 at cycle   3 NSaved=   3.
 NSaved= 3 IEnMin= 3 EnMin= -3187.90912594862     IErMin= 2 ErrMin= 9.01D-03
 ErrMax= 1.04D-02  0.00D+00 EMaxC= 1.00D-01 BMatC= 4.48D-02 BMatP= 1.00D-01
 IDIUse=3 WtCom= 8.96D-01 WtEn= 1.04D-01
 Coeff-Com: -0.557D-01 0.388D+00 0.668D+00
 Coeff-En:   0.000D+00 0.000D+00 0.100D+01
 Coeff:     -0.499D-01 0.348D+00 0.702D+00
 Gap=     0.179 Goal=   None    Shift=    0.000
 RMSDP=3.58D-04 MaxDP=2.94D-02 DE=-5.97D-01 OVMax= 3.78D-02

 Cycle   4  Pass 1  IDiag  1:
 RMSU=  2.93D-04    CP:  9.79D-01  1.08D+00  7.81D-01
 E= -3187.93842535152     Delta-E=       -0.029299402897 Rises=F Damp=F
 DIIS: error= 3.35D-03 at cycle   4 NSaved=   4.
 NSaved= 4 IEnMin= 4 EnMin= -3187.93842535152     IErMin= 4 ErrMin= 3.35D-03
 ErrMax= 3.35D-03  0.00D+00 EMaxC= 1.00D-01 BMatC= 1.01D-02 BMatP= 4.48D-02
 IDIUse=3 WtCom= 9.66D-01 WtEn= 3.35D-02
 Coeff-Com: -0.216D-01 0.636D-01 0.356D+00 0.602D+00
 Coeff-En:   0.000D+00 0.000D+00 0.170D+00 0.830D+00
 Coeff:     -0.209D-01 0.614D-01 0.350D+00 0.609D+00
 Gap=     0.179 Goal=   None    Shift=    0.000
 RMSDP=1.60D-04 MaxDP=1.66D-02 DE=-2.93D-02 OVMax= 1.58D-02

 Cycle   5  Pass 1  IDiag  1:
 RMSU=  8.28D-05    CP:  9.78D-01  1.06D+00  8.53D-01  5.90D-01
 E= -3187.94719943247     Delta-E=       -0.008774080953 Rises=F Damp=F
 DIIS: error= 5.93D-04 at cycle   5 NSaved=   5.
 NSaved= 5 IEnMin= 5 EnMin= -3187.94719943247     IErMin= 5 ErrMin= 5.93D-04
 ErrMax= 5.93D-04  0.00D+00 EMaxC= 1.00D-01 BMatC= 4.10D-04 BMatP= 1.01D-02
 IDIUse=3 WtCom= 9.94D-01 WtEn= 5.93D-03
 Coeff-Com: -0.622D-02 0.709D-02 0.118D+00 0.269D+00 0.612D+00
 Coeff-En:   0.000D+00 0.000D+00 0.000D+00 0.000D+00 0.100D+01
 Coeff:     -0.618D-02 0.704D-02 0.117D+00 0.268D+00 0.614D+00
 Gap=     0.180 Goal=   None    Shift=    0.000
 RMSDP=3.70D-05 MaxDP=3.86D-03 DE=-8.77D-03 OVMax= 5.58D-03

 Cycle   6  Pass 1  IDiag  1:
 RMSU=  2.68D-05    CP:  9.78D-01  1.07D+00  8.60D-01  6.52D-01  8.02D-01
 E= -3187.94758286705     Delta-E=       -0.000383434581 Rises=F Damp=F
 DIIS: error= 2.49D-04 at cycle   6 NSaved=   6.
 NSaved= 6 IEnMin= 6 EnMin= -3187.94758286705     IErMin= 6 ErrMin= 2.49D-04
 ErrMax= 2.49D-04  0.00D+00 EMaxC= 1.00D-01 BMatC= 4.76D-05 BMatP= 4.10D-04
 IDIUse=3 WtCom= 9.98D-01 WtEn= 2.49D-03
 Coeff-Com: -0.647D-03-0.300D-02 0.191D-01 0.607D-01 0.282D+00 0.642D+00
 Coeff-En:   0.000D+00 0.000D+00 0.000D+00 0.000D+00 0.000D+00 0.100D+01
 Coeff:     -0.645D-03-0.300D-02 0.190D-01 0.606D-01 0.281D+00 0.643D+00
 Gap=     0.180 Goal=   None    Shift=    0.000
 RMSDP=1.35D-05 MaxDP=1.30D-03 DE=-3.83D-04 OVMax= 2.02D-03

 Cycle   7  Pass 1  IDiag  1:
 RMSU=  1.11D-05    CP:  9.78D-01  1.07D+00  8.66D-01  6.55D-01  8.65D-01
                    CP:  9.05D-01
 E= -3187.94763070886     Delta-E=       -0.000047841805 Rises=F Damp=F
 DIIS: error= 6.56D-05 at cycle   7 NSaved=   7.
 NSaved= 7 IEnMin= 7 EnMin= -3187.94763070886     IErMin= 7 ErrMin= 6.56D-05
 ErrMax= 6.56D-05  0.00D+00 EMaxC= 1.00D-01 BMatC= 4.61D-06 BMatP= 4.76D-05
 IDIUse=1 WtCom= 1.00D+00 WtEn= 0.00D+00
 Coeff-Com:  0.831D-03-0.261D-02-0.111D-01-0.206D-01 0.519D-02 0.220D+00
 Coeff-Com:  0.808D+00
 Coeff:      0.831D-03-0.261D-02-0.111D-01-0.206D-01 0.519D-02 0.220D+00
 Coeff:      0.808D+00
 Gap=     0.180 Goal=   None    Shift=    0.000
 RMSDP=5.78D-06 MaxDP=6.45D-04 DE=-4.78D-05 OVMax= 1.71D-03

 Cycle   8  Pass 1  IDiag  1:
 RMSU=  3.95D-06    CP:  9.78D-01  1.06D+00  8.67D-01  6.59D-01  9.00D-01
                    CP:  1.01D+00  1.04D+00
 E= -3187.94763813480     Delta-E=       -0.000007425950 Rises=F Damp=F
 DIIS: error= 3.72D-05 at cycle   8 NSaved=   8.
 NSaved= 8 IEnMin= 8 EnMin= -3187.94763813480     IErMin= 8 ErrMin= 3.72D-05
 ErrMax= 3.72D-05  0.00D+00 EMaxC= 1.00D-01 BMatC= 1.15D-06 BMatP= 4.61D-06
 IDIUse=1 WtCom= 1.00D+00 WtEn= 0.00D+00
 Coeff-Com:  0.497D-03-0.775D-03-0.730D-02-0.180D-01-0.381D-01-0.427D-02
 Coeff-Com:  0.377D+00 0.691D+00
[...]
 000547,-0.00000756,0.00001067,0.00000310,0.00000390,0.00000315,0.00000
 608,-0.00000009,-0.00000007,-0.00000158,-0.00000602,0.00000342,0.00000
 361,0.00000082,-0.00000110,-0.00000166,-0.00000069,0.00000036,0.000001
 73,0.00000003,0.00000143,0.00000146,0.00000717,-0.00000234,0.00000317,
 -0.00000081,0.00000094,-0.00000216,-0.00000049,0.00000228,0.00000014,-
 0.00000751,0.00000615,-0.00001389,-0.00000040,-0.00000226,0.00000451,0
 .00000259,0.00000078,0.00000607,0.00000397,-0.00000415,0.00000386,0.00
 000209,-0.00000255,0.00000332,0.00000167,0.00002952,-0.00000542,0.0000
 1503,-0.00002773,0.00005175,-0.00001075,0.00001000,0.00000148,0.000012
 23,-0.00001409,-0.00000834,-0.00000051,-0.00000024,-0.00000125,0.00000
 011,0.00000017,-0.00000019,0.00000272,-0.00000679,0.00000429,-0.000003
 08,0.00001596,-0.00001139,0.00000292,-0.00001250,0.00000631,0.00000140
 ,0.00000396,-0.00000137,-0.00000642,0.00001182,-0.00000590,0.00000470,
 -0.00001387,0.00000341,-0.00000151,-0.00000352,0.00000101,-0.00001598,
 0.00001910,-0.00001389,-0.00000954,-0.00000098,0.00000522,-0.00000515,
 -0.00000368,0.00000339,0.00000039,-0.00000086,0.00000084,0.00001195,-0
 .00000652,0.00000279,0.00001300,0.00002130,-0.00000104,0.00000039,-0.0
 0000053,0.00000059,0.00002606,0.00003320,-0.00001418,-0.00000316,-0.00
 001885,0.00000482,-0.00002375,-0.00001675,0.00000745,-0.00000667,-0.00
 002285,0.00001026,-0.00000276,0.00002855,-0.00000638,0.00001785,-0.000
 00623,-0.00000219,0.00000931,-0.00000047,-0.00000165,0.00001579,0.0000
 1647,-0.00000727,0.00002698,-0.00001613,0.00000838,0.00000663,-0.00001
 240,0.00000324,-0.00000124,0.00000024,0.00000006,-0.00002618,-0.000011
 52,0.00000480,-0.00001483,-0.00001180,0.00001036,-0.00000039,-0.000001
 57,0.00000002,-0.00003476,0.00003337,-0.00000686,0.00001444,-0.0000222
 7,0.00000728,0.00002825,-0.00001376,0.00000208,0.00046497,0.00034882,0
 .00053484,-0.12507282,-0.10527652,0.06923645,-0.01360382,-0.02127569,0
 .01376075,0.12881183,-0.00000003,-0.00000135,0.00000151,-0.00000529,0.
 00000095,0.00000018,0.00000239,0.00000206,-0.00000100,-0.00001186,-0.0
 0001055,0.00000356,0.00004993,-0.00001240,0.00000943,-0.00000137,-0.00
 000018,-0.00000025,-0.00000035,-0.00000056,-0.00000044,0.00003904,0.00
 003053,-0.00006212,-0.00011337,0.00022855,0.00005603,0.00015309,0.0002
 8618,-0.00013091,0.00007866,-0.00005290,0.00009205,-0.00002748,-0.0000
 1062,-0.00001200,-0.00001883,-0.00001123,0.00000533,-0.00006824,0.0000
 4359,0.00007362,0.00002778,-0.00002186,0.00007411,0.00139876,-0.000303
 72,-0.00176680,0.00019563,0.00060519,-0.00091156,0.00012178,0.00000959
 ,0.00016721,0.00021239,0.00016400,0.00003851,-0.00016453,0.00028430,-0
 .00019026,0.00015630,0.00055236,0.00026699,-0.00003720,0.00000743,-0.0
 0001147,0.00001928,-0.00008082,0.00003661,-0.00001126,0.00001195,0.000
 03688,0.00002234,0.00000569,0.00000562,-0.00000118,0.00000070,-0.00001
 108,-0.00000313,-0.00000813,0.00000322,0.00000493,0.00000270,-0.000001
 64,0.00000051,-0.00000258,-0.00000545,-0.00000077,0.00001035,0.0000096
 0,0.00000407,0.00000446,0.00000467,0.00000042,0.00000355,0.00000256,0.
 00000040,0.00000085,0.00000163,0.00004907,-0.00003232,0.00002420,-0.00
 000783,-0.00000004,-0.00000106,-0.00001181,0.00004244,0.00001227,-0.00
 002932,-0.00000344,-0.00000887,0.00000985,0.00000375,-0.00000213,0.000
 00749,0.00000120,0.00000554,0.00000937,-0.00000342,0.00000417,0.000015
 17,-0.00002388,0.00001812,-0.00008676,0.00006753,-0.00004680,-0.000058
 44,0.00004648,-0.00000014,-0.00000659,0.00000196,0.00000410,0.00000383
 ,-0.00000415,-0.00000075,-0.00000146,0.00000033,-0.00000064,0.00000016
 ,-0.00000164,-0.00000296,0.00000817,-0.00001996,-0.00001361,-0.0000186
 1,-0.00000880,0.00000264,0.00003839,-0.00001195,0.00000662,0.00000276,
 0.00000547,-0.00000105,-0.00004995,0.00002680,-0.00001942,0.00002979,-
 0.00002089,-0.00000018,0.00000622,-0.00000654,0.00000282,-0.00000985,0
 .00000642,-0.00000564,-0.00000189,0.00004017,-0.00001805,-0.00001085,-
 0.00000477,0.00000208,-0.00000155,-0.00000225,0.00000202,0.00000827,-0
 .00000716,0.00000412,0.00002738,0.00000391,-0.00000318,0.00000060,-0.0
 0000007,0.00000068,0.00003341,0.00001430,-0.00000275,-0.00001050,-0.00
 000867,-0.00000013,-0.00002490,-0.00001055,0.00000293,0.00004831,0.000
 02165,-0.00000659,0.00000210,-0.00004425,0.00001663,-0.00009675,0.0000
 3379,0.00001047,-0.00000158,-0.00001335,-0.00000177,-0.00004159,-0.000
 08867,0.00002002,-0.00005044,0.00000938,0.00000978,-0.00000546,0.00000
 729,-0.00000048,0.00000336,-0.00000194,0.00000090,0.00007348,0.0000342
 5,-0.00002309,0.00006503,-0.00002367,0.00003415,0.00000100,0.00000398,
 0.00000163,0.00000730,-0.00009537,0.00003502,-0.00000653,0.00005878,-0
 .00002807,-0.00001273,0.00002722,-0.00000855,0.00000175,-0.00000590,0.
 00021361,-0.10526038,-0.18600582,0.09138062,0.00400438,0.00482216,-0.0
 0380575,0.11371800,0.19565595,0.00001515,0.00000622,-0.00000222,0.0000
 2559,-0.00001102,0.00000551,-0.00001796,-0.00000635,0.00000234,0.00006
 909,0.00004264,-0.00002070,-0.00017203,0.00006706,-0.00003859,0.000003
 79,-0.00000106,0.00000084,0.00000316,0.00000194,0.00000002,-0.00034171
 ,-0.00008258,0.00008662,0.00134307,0.00047099,-0.00016374,-0.00234781,
 -0.00054893,-0.00563178,-0.00057002,0.00032652,0.00001841,0.00005700,-
 0.00002602,0.00000786,0.00005983,0.00005886,-0.00003053,0.00045774,-0.
 00004503,-0.00004744,-0.00025220,0.00065565,-0.00070176,0.01756369,0.0
 2114961,-0.01322226,0.00052923,0.00123481,0.00138939,0.00006741,-0.000
 14600,-0.00002544,-0.00023426,0.00003908,0.00027114,-0.00025648,-0.000
 56472,-0.00011469,-0.00017675,-0.00009626,-0.00008222,0.00005188,-0.00
 002755,0.00002858,0.00009879,0.00019762,0.00017099,0.00001574,-0.00004
 568,-0.00004148,-0.00003875,-0.00003782,-0.00001795,-0.00000854,-0.000
 01342,0.00001318,0.00000705,0.00001711,-0.00000577,0.00000030,-0.00000
 501,-0.00000313,-0.00000548,0.00000794,0.00001973,-0.00001060,-0.00003
 437,-0.00002376,-0.00001139,-0.00001041,-0.00001164,-0.00000085,-0.000
 00882,-0.00001062,-0.00000280,-0.00000169,-0.00000631,-0.00019870,0.00
 013691,-0.00008222,0.00002329,0.00000093,0.00000170,0.00005790,-0.0001
 9220,-0.00006101,0.00006102,-0.00000039,0.00003609,-0.00001991,-0.0000
 0399,0.00000047,-0.00001538,0.00000041,-0.00001430,-0.00002374,0.00001
 385,-0.00001107,-0.00003381,0.00020500,-0.00008830,0.00047534,-0.00031
 592,0.00011942,0.00003626,0.00001464,-0.00004417,0.00001535,0.00000012
 ,-0.00000585,-0.00000877,0.00000716,-0.00000356,0.00000691,-0.00000049
 ,0.00000034,0.00000254,0.00001011,0.00001391,0.00000247,0.00007125,0.0
 0010240,-0.00003679,0.00005761,-0.00005584,0.00000939,-0.00000116,0.00
 002067,-0.00000491,-0.00000814,-0.00000188,-0.00000059,-0.00000469,-0.
 00000462,0.00000771,0.00001021,0.00002826,0.00000487,-0.00000215,0.000
 00799,-0.00001971,0.00002289,-0.00000528,0.00001272,0.00000769,-0.0000
 3586,-0.00000574,0.00000223,0.00000281,-0.00000042,-0.00000085,-0.0000
 0195,0.00001182,-0.00000352,0.00000459,0.00001726,0.00001212,-0.000018
 60,-0.00000003,-0.00000293,-0.00000075,-0.00001340,0.00000278,-0.00001
 576,0.00000408,0.00000130,0.00001252,0.00000468,0.00000090,0.00000622,
 -0.00002076,-0.00004008,0.00004284,0.00003957,0.00002487,-0.00001741,-
 0.00000418,-0.00002914,0.00002970,-0.00001446,-0.00000451,0.00000248,0
 .00002998,0.00004100,-0.00001313,0.00000938,-0.00000389,-0.00007830,0.
 00000733,0.00000289,-0.00000068,0.00000493,-0.00000005,-0.00000403,-0.
 00003285,-0.00001885,0.00000522,-0.00002792,0.00003256,0.00000067,-0.0
 0000018,-0.00000149,0.00000061,0.00000687,0.00005403,-0.00001637,0.000
 00058,-0.00003658,0.00000744,0.00000542,-0.00001539,0.00000474,-0.0001
 5533,0.00004985,0.00120899,0.06758674,0.08906362,-0.10434594,-0.003085
 61,-0.00484702,0.00200786,-0.07285506,-0.09833218,0.11368717,-0.000002
 52,-0.00000418,-0.00000133,-0.00000010,0.00000050,-0.00000102,0.000000
 04,-0.00000298,-0.00000010,0.00000167,-0.00000081,-0.00000125,-0.00001
 752,0.00000598,0.00000815,0.00000019,0.00000016,0.00000113,-0.00000028
 ,0.00000042,0.00000137,-0.00001959,0.00000496,0.00003680,-0.00003367,-
 0.00007052,0.00002084,-0.00011713,0.00022444,0.00017360,-0.00020092,0.
 00002339,-0.00000430,0.00003321,0.00001492,0.00012723,0.00000178,-0.00
 000838,0.00000523,0.00004141,-0.00002827,0.00002276,-0.00001037,0.0000
 3008,-0.00003026,0.00024746,-0.00698404,-0.00282981,0.00025173,0.00006
 576,-0.00160465,0.00028143,-0.00024073,0.00001438,0.00049365,-0.000368
 25,-0.00032121,0.00006550,0.00033473,-0.00002692,-0.00007112,-0.000171
 51,0.00038107,0.00000593,0.00000619,-0.00000384,-0.00000476,0.00001664
 ,-0.00001674,0.00002291,-0.00001006,-0.00002120,-0.00001533,0.00000377
 ,-0.00000050,-0.00000237,0.00000126,0.00001183,-0.00000707,0.00000459,
 0.00000372,-0.00000799,-0.00000297,0.00000157,-0.00000054,0.00000249,0
 .00000169,0.00000562,-0.00000178,-0.00000754,-0.00000173,-0.00000235,-
 0.00000243,0.00000005,-0.00000177,-0.00000084,-0.00000071,0.00000006,0
 .00000025,-0.00002613,0.00001469,-0.00001225,0.00000324,0.00000137,-0.
 00000163,0.00000196,-0.00001706,-0.00000136,0.00001918,0.00001139,-0.0
 0000539,-0.00000927,-0.00000622,0.00000593,-0.00000441,-0.00000162,-0.
 00000056,-0.00000383,-0.00000233,-0.00000047,-0.00001813,-0.00000119,-
 0.00000875,0.00005313,-0.00002297,0.00001749,0.00000232,-0.00001362,0.
 00001308,0.00000556,0.00000672,-0.00001216,0.00000492,0.00000742,0.000
 00124,0.00000125,0.00000112,0.00000124,0.00000064,0.00000050,0.0000015
 6,-0.00001404,0.00000062,0.00000517,0.00009829,0.00007410,-0.00002621,
 -0.00013312,0.00000395,-0.00002081,-0.00000465,-0.00000342,0.00000183,
 0.00011309,-0.00006234,0.00005434,-0.00005122,0.00003963,-0.00004291,-
 0.00001938,0.00000983,-0.00001038,0.00004196,-0.00003482,0.00002269,0.
 00004812,-0.00003512,0.00003911,0.00002657,0.00000560,-0.00000412,0.00
 000210,0.00000439,-0.00000187,-0.00004200,0.00002068,-0.00001756,-0.00
 006169,-0.00000709,0.00001515,-0.00000165,0.00000268,0.00000004,-0.000
 05026,-0.00003946,0.00002396,0.00001630,0.00002053,-0.00001730,0.00004
 286,0.00002054,-0.00001161,-0.00011873,-0.00010443,0.00002465,0.000120
 55,0.00016786,-0.00002555,-0.00021566,0.00005554,-0.00014663,0.0000124
 0,-0.00002097,0.00000618,0.00007025,0.00007710,-0.00001006,0.00026247,
 0.00007904,-0.00042162,0.00002214,-0.00002454,0.00000858,0.00000514,0.
 00000120,0.00000086,-0.00008627,-0.00003076,0.00003279,-0.00007946,-0.
 00007989,0.00000801,-0.00000094,-0.00000536,-0.00000124,-0.00004001,0.
 00004702,-0.00001287,0.00002452,-0.00002842,0.00001437,0.00003358,-0.0
 0001524,0.00000149,0.00038673,-0.00042694,0.00041652,-0.06160951,0.059
 05027,0.02633368,-0.00489831,0.02618959,0.01197422,0.00442150,-0.01439
 167,-0.00778702,0.06070902,-0.00000130,0.00000312,0.00000077,0.0000034
 3,0.00000092,-0.00000109,-0.00000026,0.00000103,0.00000083,0.00000913,
 0.00001023,-0.00000646,-0.00003621,0.00001024,-0.00001033,0.00000109,0
 .00000003,-0.00000071,0.00000049,0.00000013,-0.00000062,0.00000137,-0.
 00002993,0.00001172,0.00017551,0.00010655,0.00012871,-0.00033151,0.000
 72499,0.00064157,-0.00014570,0.00003193,0.00015087,-0.00001285,-0.0000
 3807,-0.00002322,0.00001688,0.00000756,-0.00000457,0.00004875,0.000054
 06,-0.00004278,-0.00004276,0.00012996,-0.00011689,-0.00119919,0.000115
 94,0.00220144,-0.00040588,0.00110064,-0.00107828,-0.00005265,0.0000577
 5,0.00018603,0.00018235,-0.00019401,-0.00000347,0.00009660,0.00018711,
 0.00011476,0.00017014,0.00027360,-0.00004767,-0.00000605,-0.00000453,0
 .00001715,-0.00000066,-0.00002718,0.00003118,0.00001039,0.00001395,-0.
 00003641,-0.00002824,0.00003124,-0.00000686,0.00000034,0.00002353,0.00
 001616,0.00000685,-0.00000861,-0.00000217,-0.00000107,0.00000850,0.000
 00151,0.00000283,-0.00000320,0.00000541,0.00001118,-0.00000527,0.00000
 206,-0.00000096,-0.00000345,-0.00000019,0.00000057,-0.00000241,0.00000
 044,0.00000075,-0.00000331,0.00000093,-0.00005889,0.00004327,-0.000010
 85,0.00000469,-0.00000368,-0.00000294,0.00002207,-0.00006738,-0.000022
 94,0.00000606,-0.00000572,-0.00000624,-0.00000423,0.00000007,0.0000049
 5,-0.00000032,0.00000525,0.00000581,-0.00000358,0.00000362,0.00000093,
 -0.00002278,0.00002733,-0.00000884,0.00011230,-0.00006382,0.00001520,-
 0.00004543,0.00001585,0.00005932,0.00000459,-0.00000783,0.00000557,-0.
 00000589,-0.00000074,-0.00000163,-0.00000032,-0.00000126,-0.00000027,0
 .00000134,0.00000359,0.00000494,0.00000155,0.00001811,0.00004020,0.000
 00181,0.00005987,-0.00004066,-0.00003756,-0.00000789,0.00000562,-0.000
 00174,-0.00000050,-0.00000288,0.00004378,-0.00001016,0.00001095,-0.000
 04487,0.00002354,0.00000611,-0.00001116,0.00000449,-0.00000169,0.00000
 441,0.00000638,-0.00000402,0.00004037,0.00004561,-0.00008074,0.0000047
 1,-0.00000417,0.00000225,0.00000192,0.00000033,-0.00000143,-0.00000233
 ,0.00000556,0.00000032,0.00002073,0.00002547,-0.00002752,0.00000017,-0
 .00000113,-0.00000089,0.00001082,0.00000041,-0.00000591,-0.00000291,0.
 00000280,0.00000571,-0.00000499,-0.00000076,0.00000321,-0.00004387,-0.
 00005644,0.00005429,0.00010066,0.00006722,-0.00003312,0.00025505,-0.00
 022750,0.00033173,-0.00000965,-0.00001141,-0.00000176,-0.00006134,0.00
 000805,-0.00003080,-0.00015878,-0.00053600,-0.00010002,0.00000996,-0.0
 0002360,0.00000604,0.00000669,-0.00000332,-0.00000610,-0.00004134,0.00
 000176,-0.00000016,-0.00012473,0.00004255,-0.00007585,-0.00000236,-0.0
 0000246,-0.00000256,-0.00003375,0.00002094,-0.00001435,0.00001703,-0.0
 0001054,0.00001710,0.00002703,-0.00000664,0.00000344,-0.00012583,0.000
 29021,-0.00033443,0.05899672,-0.26272867,-0.09633961,-0.00016421,-0.00
 309725,-0.00094193,0.00622469,-0.01622385,-0.00854469,-0.06337966,0.27
 980743,-0.00000301,-0.00000014,0.00000224,0.00000164,0.00000244,-0.000
 00151,0.00000121,0.00000229,-0.00000043,0.00000916,0.00001201,-0.00000
 589,-0.00003929,0.00001570,-0.00002146,0.00000053,-0.00000009,-0.00000
 036,0.00000100,0.,-0.00000046,0.00006336,-0.00005681,-0.00000297,-0.00
 004716,0.00003244,0.00032869,-0.00054724,-0.00196808,0.00098905,-0.000
 14411,0.00001505,0.00013582,-0.00000947,0.00000314,-0.00002986,0.00001
 589,0.00000206,-0.00000481,0.00009069,0.00009540,-0.00001796,-0.000036
 48,0.00008552,-0.00001834,0.00846079,-0.02724328,-0.01095659,-0.001311
 60,0.00131711,-0.00651750,0.00007086,0.00021084,0.00007800,0.00014763,
 -0.00188277,-0.00062778,-0.00015147,0.00000195,0.00018914,0.00023699,0
 .00070352,0.00065450,-0.00004210,0.00000967,-0.00007635,0.00003104,-0.
 00009130,0.00004656,0.00002198,0.00001149,-0.00001090,-0.00003128,0.00
 003775,0.00001755,0.00001080,0.00002963,0.00001300,0.00000503,-0.00001
 056,0.00000314,-0.00002605,0.00000269,-0.00000697,0.00000201,-0.000005
 05,0.00000451,0.00002342,0.00000823,-0.00000424,-0.00000042,-0.0000031
 2,0.00000197,0.00000161,-0.00000356,0.00000255,0.00000052,-0.00000339,
 0.00000057,-0.00004604,0.00003884,-0.00000559,-0.00000007,-0.00000222,
 -0.00000981,0.00002293,-0.00006184,-0.00001930,-0.00000770,-0.00000668
 ,-0.00001371,-0.00000096,0.00000103,0.00000501,0.00000373,0.00000708,0
 .00001034,0.00000127,0.00000179,0.00000381,-0.00002186,0.00000897,-0.0
 0000016,0.00007085,-0.00003960,0.00000310,-0.00008763,0.00001756,0.000
 02868,0.00000694,-0.00000533,0.00000640,-0.00000433,0.00000003,-0.0000
 0404,0.00000024,-0.00000061,-0.00000046,0.00000147,0.00000412,0.000004
 18,0.00000642,0.00000827,0.00005334,0.00003149,0.00010374,-0.00006637,
 -0.00004588,-0.00002980,0.00001035,-0.00000145,0.00000364,-0.00000426,
 0.00000008,0.00000511,0.00000577,0.00002811,-0.00000095,-0.00003168,-0
 .00000871,-0.00000570,0.00000376,0.00000478,0.00000149,0.00000539,0.00
 003767,0.00004708,0.00002883,-0.00000269,-0.00000740,0.00000587,-0.000
 00140,-0.00000188,0.00000055,-0.00001339,0.00000145,-0.00000205,0.0000
 2349,0.00000806,-0.00000722,0.00000015,-0.00000052,-0.00000005,0.00003
 173,-0.00001327,0.00000641,-0.00000944,0.00000991,-0.00000692,-0.00001
 781,-0.00000105,0.00000163,-0.00002385,-0.00010121,0.00003644,0.000162
 09,0.00006179,0.00000241,-0.00032378,-0.00002154,0.00003630,-0.0000054
 0,-0.00005871,0.00000351,0.00000666,-0.00004834,0.00000104,-0.00032425
 ,0.00025119,-0.00016054,0.00001840,-0.00000399,0.00000575,0.00001193,-
 0.00000382,-0.00000312,0.00002265,0.00001320,-0.00000640,-0.00006409,0
 .00002037,-0.00001099,0.00000110,0.00000051,-0.00000072,-0.00004674,-0
 .00004133,0.00001598,0.00002003,0.00002415,-0.00000681,0.00003688,0.00
 000582,-0.00000427,-0.00006653,0.00017026,0.00139084,0.02592008,-0.093
 98795,-0.08725409,-0.00090215,0.00563187,0.00133483,-0.00488992,0.0127
 3437,0.00575921,-0.02636155,0.10393129,0.09468594\\-0.00000127,-0.0000
 0504,-0.00000019,-0.00000054,-0.00000413,-0.00000025,0.00000057,-0.000
 00453,0.00000126,0.00000067,-0.00000292,0.00000058,-0.00000069,-0.0000
 0203,0.00000004,0.00000030,-0.00000541,0.00000045,0.00000147,-0.000003
 42,0.00000085,0.00000065,-0.00000151,0.00000108,-0.00000095,0.00000207
 ,0.00000039,-0.00000897,-0.00000121,0.00000049,-0.00000176,-0.00000219
 ,-0.00000116,-0.00000161,-0.00000251,-0.00000108,0.00000124,-0.0000007
 1,0.00000109,0.00000022,-0.00000179,-0.00000100,0.00000067,0.00000023,
 -0.00000128,-0.00000042,-0.00000080,-0.00000188,-0.00000252,0.00000002
 ,-0.00000207,-0.00000339,-0.00000081,-0.00000195,-0.00000330,0.0000002
 9,-0.00000163,-0.00000376,-0.00000011,-0.00000215,0.00001080,0.0000000
 5,-0.00000215,0.00000043,0.00000061,0.00000017,-0.00000109,0.00000193,
 -0.00000051,-0.00000210,0.00000308,-0.00000047,-0.00000209,0.00000096,
 -0.00000106,-0.00000190,0.00000270,-0.00000262,-0.00000117,0.00000269,
 -0.00000148,-0.00000194,0.00000189,-0.00000196,-0.00000197,0.00000102,
 -0.00000143,-0.00000301,0.00000316,-0.00000157,-0.00000280,0.00000401,
 -0.00000192,-0.00000289,0.00000215,-0.00000147,-0.00000324,0.00000376,
 -0.00000233,-0.00000109,0.00000460,-0.00000100,0.00000066,0.00000208,0
 .00000050,0.00000423,0.00000067,0.00000204,0.00000124,0.00000419,0.000
 00249,0.00000214,0.00000397,-0.00000287,0.00000189,0.00000454,0.000000
 72,0.00000293,0.00000477,0.00000119,0.00000184,0.00000119,0.00000156,0
 .00000090,-0.00000023,0.00000034,-0.00000229,-0.00000098,-0.00000120,-
 0.00000156,-0.00000384,-0.00000068,-0.00000160,-0.00000371,-0.00000133
 ,-0.00000149,-0.00000550,-0.00000057,0.00000315,0.00000199,0.00000095,
 0.00000232,0.00000039,0.00000225,0.00000158,0.00000153,0.00000116,0.00
 000263,0.00000093,0.00000303,0.00000381,0.00000018,0.00000170,0.000002
 75,-0.00000178,0.00000176,0.00000260,-0.00000238,0.00000176,0.00000226
 ,-0.00000147,0.00000189,0.00000100,-0.00000247,0.00000033,-0.00000294,
 -0.00000143,0.00000022,0.00000270,-0.00000351,0.00000192,0.00000381,-0
 .00000191,0.00000277,0.00000209,-0.00000380,0.00000153,0.00000044,-0.0
 0000366,0.00000071,0.00000335,-0.00000355,0.00000231,0.00000122,-0.000
 00336,0.00000041,0.00000084,-0.00000591,0.00000124,0.00000162,-0.00000
 548,0.00000201,0.00000238,0.00000048,0.00000029,0.00000079,0.00000154,
 0.00000211,-0.00000070,0.00000167,0.00000024,0.00000233,0.00000390,0.0
 0000239,-0.00000061,0.00000215,-0.00000056,0.00000070,0.00000034,0.000
 00044,0.00000137,0.00000335,0.00000074,0.00000257,0.00000249,0.0000019
 7,0.00000035,0.00000285,-0.00000031,-0.00000150,0.00000162,-0.00000071
 ,0.00000143,0.00000407,0.00000050,-0.00000056,0.00000408,-0.00000096,-
 0.00000164,0.00000342,-0.00000068,-0.00000023,0.00000448,-0.00000062,-
 0.00000139,0.00000091,-0.00000163,-0.00000472,-0.00000043,-0.00000044,
 -0.00000209,-0.00000182,-0.00000183,-0.00000275,-0.00000123,-0.0000016
 0,-0.00000241,-0.00000142,-0.00000127\\\@
 The archive entry for this job was punched.


 NEVER LISTEN TO CRITICISM
 OR YOU'LL BE DOIN' EVERYBODY ELSE'S THING BUT BUT YOUR OWN.

                                               -- ANDY CAPP
 Job cpu time:       3 days  1 hours 36 minutes 27.7 seconds.
 Elapsed time:       0 days  4 hours 36 minutes 25.1 seconds.
 File lengths (MBytes):  RWF=   7726 Int=      0 D2E=      0 Chk=     84 Scr=      1
 Normal termination of Gaussian 16 at Wed Jun 26 20:49:58 2024.
